LAMMPS (3 Mar 2020)
OMP_NUM_THREADS environment is not set. Defaulting to 1 thread. (src/comm.cpp:94)
  using 1 OpenMP thread(s) per MPI task
Reading data file ...
  orthogonal box = (0 0 0) to (33.79 33.79 33.79)
  6 by 6 by 6 MPI processor grid
  reading atoms ...
  27950 atoms
  scanning bonds ...
  1 = max bonds/atom
  reading bonds ...
  8700 bonds
Finding 1-2 1-3 1-4 neighbors ...
  special bond factors lj:   0          0          0         
  special bond factors coul: 0          0          0         
  2 = max # of 1-2 neighbors
  2 = max # of 1-3 neighbors
  4 = max # of 1-4 neighbors
  6 = max # of special neighbors
  special bonds CPU = 2.48351 secs
  read_data CPU = 2.6494 secs
9000 atoms in group polyA
9000 atoms in group counterions
9000 atoms in group chain
950 atoms in group filler
8050 atoms in group water
950 atoms in group salt
27000 atoms in group exc
Finding 1-2 1-3 1-4 neighbors ...
  special bond factors lj:   0          1          1         
  special bond factors coul: 0          1          1         
  2 = max # of 1-2 neighbors
  6 = max # of special neighbors
  special bonds CPU = 0.0201864 secs
50 rigid bodies with 950 atoms
Neighbor list info ...
  update every 1 steps, delay 0 steps, check yes
  max neighbors/atom: 2000, page size: 100000
  master list distance cutoff = 1.7
  ghost atom cutoff = 1.7
  binsize = 0.85, bins = 40 40 40
  1 neighbor lists, perpetual/occasional/extra = 1 0 0
  (1) pair soft, perpetual
      attributes: half, newton on
      pair build: half/bin/newton
      stencil: half/bin/3d/newton
      bin: standard
Setting up Verlet run ...
  Unit style    : lj
  Current step  : 0
  Time step     : 0.005
WARNING: Communication cutoff 1.7 is shorter than a bond length based estimate of 1.755. This may lead to errors. (src/comm.cpp:686)
Per MPI rank memory allocation (min/avg/max) = 13.01 | 14.38 | 15.13 Mbytes
Step Temp Press TotEng Volume 
       0   0.79925315     5.549746    17.531711    38580.209 
   10000   0.80020252    11.619109     12.27486    38580.209 
   20000   0.80211344    13.078926    12.664067    38580.209 
   30000   0.79484217    14.549014    12.995921    38580.209 
   40000   0.80106636    16.039399    13.351439    38580.209 
   50000    0.8039062     17.51565    13.688905    38580.209 
   60000   0.80268056    18.965872      14.0134    38580.209 
   70000   0.79974518     20.38178    14.325275    38580.209 
   80000   0.80255914    21.838695    14.671891    38580.209 
   90000   0.80022955    23.308227    14.992698    38580.209 
  100000   0.79234284    24.737563    15.326762    38580.209 
  110000   0.79652357    26.194577    15.666956    38580.209 
  120000   0.80000544    27.616898    16.018449    38580.209 
  130000   0.80601005    29.054365    16.384127    38580.209 
  140000   0.79990273    30.442778    16.727944    38580.209 
  150000   0.80509905     31.86373    17.109668    38580.209 
  160000   0.80003811    33.276751    17.469841    38580.209 
  170000   0.79779109    34.755814      17.8297    38580.209 
  180000   0.79988509    36.180274    18.195167    38580.209 
  190000    0.7958775    37.630906    18.554391    38580.209 
  200000   0.80950529     39.02461    18.958227    38580.209 
  210000   0.80653529    40.415294    19.315293    38580.209 
  220000   0.80562529    41.821129    19.675704    38580.209 
  230000   0.79734334    43.205086    20.021885    38580.209 
  240000   0.79842391    44.631651     20.40497    38580.209 
  250000   0.79481182    46.089565    20.761661    38580.209 
  260000   0.79973336    47.455134    21.139579    38580.209 
  270000   0.79966809    48.875375    21.508433    38580.209 
  280000   0.79769955    50.258425    21.873302    38580.209 
  290000   0.79030437    51.719988    22.218971    38580.209 
  300000   0.80486673     53.04771     22.61504    38580.209 
  310000   0.80739903    54.452658    22.984619    38580.209 
  320000   0.79249017    55.842902    23.338727    38580.209 
  330000   0.80109821    57.234142    23.715309    38580.209 
  340000   0.79948912    58.627366    24.076509    38580.209 
  350000   0.80303883    60.002138    24.448653    38580.209 
  360000   0.80054736    61.444883    24.804396    38580.209 
  370000   0.79864857    62.827727    25.175712    38580.209 
  380000   0.79807317     64.19171    25.549085    38580.209 
  390000   0.80329109    65.627885     25.91754    38580.209 
  400000   0.80069437    66.993903    26.275423    38580.209 
  410000   0.79640121    68.368839    26.630855    38580.209 
  420000   0.79732845    69.833902    26.996581    38580.209 
  430000   0.79498017    71.158589    27.356765    38580.209 
  440000   0.80632859    72.558913    27.727359    38580.209 
  450000   0.80516216     73.89297    28.098893    38580.209 
  460000   0.79896656    75.277363    28.451255    38580.209 
  470000   0.79786697    76.692164    28.820124    38580.209 
  480000    0.7986462    78.082319    29.181985    38580.209 
  490000   0.79800829    79.413401    29.552131    38580.209 
  500000   0.79887858    80.792263    29.894726    38580.209 
  510000   0.79943103    82.176909    30.267942    38580.209 
  520000   0.79562151    83.534711    30.627106    38580.209 
  530000   0.80084035    84.921419    30.986903    38580.209 
  540000   0.79413188    86.227963    31.344728    38580.209 
  550000   0.79263692    87.636023    31.699849    38580.209 
  560000   0.79956727    89.027287     32.07376    38580.209 
  570000   0.80073178    90.447454    32.436366    38580.209 
  580000   0.80436824    91.780619     32.79829    38580.209 
  590000   0.80459448     93.13442     33.16403    38580.209 
  600000    0.8016623    94.445831    33.519464    38580.209 
  610000    0.7983229    95.835526    33.881464    38580.209 
  620000   0.79563597     97.21348    34.229238    38580.209 
  630000   0.80372789    98.603808    34.597958    38580.209 
  640000   0.80026421    99.921145    34.952952    38580.209 
  650000   0.80897996     101.3778    35.327513    38580.209 
  660000   0.80101286    102.69146    35.658056    38580.209 
  670000   0.80544492    104.01724    36.038744    38580.209 
  680000   0.79879931    105.42939    36.385425    38580.209 
  690000   0.79594887    106.75828     36.74203    38580.209 
  700000   0.79680461    108.03445    37.094981    38580.209 
  710000   0.80162565    109.48752    37.462091    38580.209 
  720000   0.80435943    110.86417    37.813471    38580.209 
  730000   0.79830914    112.14386    38.171519    38580.209 
  740000    0.7987819    113.50089    38.541152    38580.209 
  750000   0.79669259    114.85455    38.897436    38580.209 
  760000   0.80519609    116.30698    39.256415    38580.209 
  770000   0.80416605    117.61201    39.619707    38580.209 
  780000    0.8015952    118.89658    39.969214    38580.209 
  790000   0.79744003    120.29206     40.33272    38580.209 
  800000   0.80220097    121.61951    40.682949    38580.209 
  810000   0.80067418    122.95035    41.033639    38580.209 
  820000   0.79896122    124.24133     41.39091    38580.209 
  830000   0.79805567    125.68168    41.741475    38580.209 
  840000   0.79949784    126.98234    42.098608    38580.209 
  850000   0.80272553    128.32924    42.461521    38580.209 
  860000   0.79568641    129.70389    42.806245    38580.209 
  870000   0.79704275    131.09492    43.165595    38580.209 
  880000   0.80563888     132.3953     43.53369    38580.209 
  890000   0.79549811      133.697    43.878119    38580.209 
  900000   0.80425172     135.0922    44.233248    38580.209 
  910000   0.79859432    136.38679    44.591342    38580.209 
  920000   0.80741153    137.77663    44.963183    38580.209 
  930000   0.80073431     139.1386    45.291856    38580.209 
  940000    0.8005504    140.43854     45.66329    38580.209 
  950000   0.79624927    141.79451    46.021283    38580.209 
  960000   0.80263745    143.18111    46.367701    38580.209 
  970000   0.79802001    144.46456    46.708583    38580.209 
  980000   0.79553762    145.82685    47.052383    38580.209 
  990000   0.80125676    147.14697    47.428487    38580.209 
 1000000   0.79848059    148.50102    47.764906    38580.209 
 1010000   0.79939068    149.81233    48.134554    38580.209 
 1020000   0.79605957     151.1326     48.47956    38580.209 
 1030000   0.79728069    152.52392    48.833258    38580.209 
 1040000   0.79777929    153.87894    49.201475    38580.209 
 1050000   0.80146834    155.14027    49.553465    38580.209 
 1060000   0.80620344    156.48937    49.906717    38580.209 
 1070000   0.79006903    157.85975    50.226043    38580.209 
 1080000   0.80513589    159.21762    50.610295    38580.209 
 1090000   0.79262167     160.5148    50.947624    38580.209 
 1100000   0.80162725    161.78878     51.29951    38580.209 
 1110000   0.80383745    163.24716    51.664099    38580.209 
 1120000   0.79464553    164.56482     52.00063    38580.209 
 1130000   0.79999676     165.8617    52.363853    38580.209 
 1140000   0.80091078     167.1397    52.721386    38580.209 
 1150000   0.80111348    168.51944    53.068132    38580.209 
 1160000   0.80066603    169.76589     53.41072    38580.209 
 1170000   0.80371961    171.16824    53.772477    38580.209 
 1180000   0.80358508    172.55083    54.127334    38580.209 
 1190000   0.79392883    173.83795    54.459033    38580.209 
 1200000   0.79819604    175.13359     54.81361    38580.209 
 1210000   0.80146199    176.45614    55.173623    38580.209 
 1220000   0.79887673    177.81574    55.513542    38580.209 
 1230000   0.79292202    179.19767    55.850004    38580.209 
 1240000   0.79933791    180.46018    56.213576    38580.209 
 1250000   0.80481325    181.79848    56.578525    38580.209 
 1260000   0.79717288    183.16194    56.915303    38580.209 
 1270000   0.79703008    184.49495    57.274757    38580.209 
 1280000   0.79982614      185.829     57.62278    38580.209 
 1290000   0.80079744    187.02201    57.969238    38580.209 
 1300000   0.79977401    188.46239    58.330676    38580.209 
 1310000   0.80497582    189.79191    58.683319    38580.209 
 1320000   0.80301785    191.12644    59.006477    38580.209 
 1330000    0.7987188    192.37002    59.367449    38580.209 
 1340000   0.79933577     193.6115    59.701141    38580.209 
 1350000   0.80263703    194.90066    60.067071    38580.209 
 1360000   0.80037774    196.35248    60.406166    38580.209 
 1370000   0.79934558    197.55131    60.761672    38580.209 
 1380000   0.80069238    198.91354     61.12134    38580.209 
 1390000   0.80266436    200.26481    61.465575    38580.209 
 1400000   0.79139937    201.53739    61.786036    38580.209 
 1410000   0.80444662    202.81041       62.153    38580.209 
 1420000   0.80206955    204.25068    62.508449    38580.209 
 1430000   0.79325646    205.51193    62.844414    38580.209 
 1440000   0.79972171    206.85647    63.210882    38580.209 
 1450000    0.7998901    208.27238    63.548713    38580.209 
 1460000   0.79830592    209.47378    63.895572    38580.209 
 1470000   0.80597724    210.77715    64.242434    38580.209 
 1480000   0.79822074    212.15727    64.584595    38580.209 
 1490000   0.80253112    213.43097    64.944834    38580.209 
 1500000   0.80538889    214.80735    65.295077    38580.209 
 1510000   0.79394916    216.00194    65.618849    38580.209 
 1520000   0.80345525    217.40082      65.9757    38580.209 
 1530000   0.80443076    218.66533    66.314143    38580.209 
 1540000   0.80218132    220.05678    66.678397    38580.209 
 1550000   0.79887457    221.30588    67.018911    38580.209 
 1560000   0.80150204    222.68227     67.38119    38580.209 
 1570000   0.79489907    224.02972    67.706068    38580.209 
 1580000   0.79858458    225.28984     68.04956    38580.209 
 1590000    0.7987389    226.51447    68.402906    38580.209 
 1600000   0.80397049    227.87645     68.76057    38580.209 
 1610000   0.80625159    229.07818    69.104218    38580.209 
 1620000   0.79883771    230.48945    69.440943    38580.209 
 1630000   0.79780815    231.75861    69.782651    38580.209 
 1640000   0.80104076    233.08912    70.125066    38580.209 
 1650000   0.79644761    234.31493    70.477187    38580.209 
 1660000    0.7974409    235.78991    70.813123    38580.209 
 1670000   0.80258413    237.04189    71.179209    38580.209 
 1680000   0.80106916    238.29062    71.520323    38580.209 
 1690000   0.79809148    239.57739    71.849239    38580.209 
 1700000   0.79428342     240.9176    72.198164    38580.209 
 1710000   0.80083444    242.18803    72.544065    38580.209 
 1720000   0.79730258    243.61581    72.896327    38580.209 
 1730000   0.79390159    244.83187    73.218186    38580.209 
 1740000   0.80085859    246.11518    73.583111    38580.209 
 1750000   0.80253807    247.40883    73.935845    38580.209 
 1760000   0.79949954    248.80172    74.268229    38580.209 
 1770000   0.80648687    250.09616    74.629938    38580.209 
 1780000   0.80817008    251.41417    74.974238    38580.209 
 1790000   0.80302595    252.73469    75.306992    38580.209 
 1800000   0.80332576    253.95512    75.660461    38580.209 
 1810000   0.80356504    255.19415    75.994177    38580.209 
 1820000   0.79668884     256.6047     76.33606    38580.209 
 1830000   0.80057496     257.8176    76.684843    38580.209 
 1840000   0.79937402    259.18393    77.029056    38580.209 
 1850000   0.79302812    260.50426    77.365052    38580.209 
 1860000   0.79975776    261.72273    77.716434    38580.209 
 1870000   0.80308769    263.10853    78.069911    38580.209 
 1880000   0.79695927    264.29798    78.402883    38580.209 
 1890000   0.79713467    265.51795    78.748794    38580.209 
 1900000     0.801654    266.96529    79.102423    38580.209 
 1910000   0.80113072    268.27704    79.435502    38580.209 
 1920000   0.79407735    269.52841    79.771813    38580.209 
 1930000     0.790878    270.94732    80.108833    38580.209 
 1940000   0.80111596    272.06067    80.468343    38580.209 
 1950000   0.79658166    273.36959    80.800615    38580.209 
 1960000   0.79778644    274.75694    81.140867    38580.209 
 1970000   0.80110265    275.99938    81.489582    38580.209 
 1980000   0.80099905    277.30183    81.843216    38580.209 
 1990000   0.80174356    278.54975    82.185833    38580.209 
 2000000   0.79310462    279.81323    82.518493    38580.209 
Loop time of 1005.62 on 216 procs for 2000000 steps with 27950 atoms

Performance: 859168.696 tau/day, 1988.816 timesteps/s
99.9% CPU use with 216 MPI tasks x 1 OpenMP threads

MPI task timing breakdown:
Section |  min time  |  avg time  |  max time  |%varavg| %total
---------------------------------------------------------------
Pair    | 128.1      | 134.56     | 155.38     |  30.0 | 13.38
Bond    | 0.49956    | 2.8538     | 4.7154     |  54.8 |  0.28
Neigh   | 65.7       | 74.12      | 80.843     |  29.5 |  7.37
Comm    | 245.98     | 299.18     | 336.51     |  92.7 | 29.75
Output  | 0.61338    | 0.61851    | 0.63494    |   0.3 |  0.06
Modify  | 302.66     | 358.97     | 434.29     | 157.0 | 35.70
Other   |            | 135.3      |            |       | 13.46

Nlocal:    129.398 ave 158 max 115 min
Histogram: 7 16 51 86 45 7 2 1 0 1
Nghost:    403.681 ave 431 max 375 min
Histogram: 2 8 12 41 28 53 43 18 9 2
Neighs:    885.986 ave 1200 max 766 min
Histogram: 8 35 93 62 11 4 2 0 0 1

Total # of neighbors = 191373
Ave neighs/atom = 6.84698
Ave special neighs/atom = 0.62254
Neighbor list builds = 237336
Dangerous builds = 0
System init for write_data ...
Neighbor list info ...
  update every 1 steps, delay 0 steps, check yes
  max neighbors/atom: 2000, page size: 100000
  master list distance cutoff = 2.8
  ghost atom cutoff = 2.8
  binsize = 1.4, bins = 25 25 25
  1 neighbor lists, perpetual/occasional/extra = 1 0 0
  (1) pair lj/cut, perpetual
      attributes: half, newton on
      pair build: half/bin/newton
      stencil: half/bin/3d/newton
      bin: standard
Setting up Verlet run ...
  Unit style    : lj
  Current step  : 2000000
  Time step     : 0.005
Per MPI rank memory allocation (min/avg/max) = 13.04 | 14.49 | 15.16 Mbytes
Step Temp Press TotEng Volume 
 2000000   0.79310462     11.01358    5.5977906    38580.209 
 2010000   0.80208448  -0.10228951    2.5702493    34930.038 
 2020000   0.79947051  -0.11647534    2.5642366     34878.93 
 2030000   0.80388586  -0.10663731    2.5565303    34837.955 
 2040000   0.80543093  -0.10321244    2.5620546    34828.962 
 2050000   0.80692526   -0.1069258    2.5693417    34815.979 
 2060000   0.80183839  -0.10259834    2.5674365    34893.332 
 2070000   0.79626453   -0.1111907    2.5578896    34890.534 
 2080000   0.80345135 -0.097964427    2.5575601    34794.722 
 2090000    0.7955781  -0.10678291    2.5278912    34684.406 
 2100000   0.79650825  -0.11575734    2.5312271    34721.823 
 2110000    0.7981039  -0.10381708    2.5344539    34751.403 
 2120000   0.79620214  -0.10795742    2.5410976    34774.741 
 2130000   0.79660757  -0.11155334     2.550791    34824.463 
 2140000   0.79720811  -0.10897088     2.562216    34900.292 
 2150000   0.79939085  -0.10877668    2.5605463    34923.641 
 2160000   0.79383583  -0.10315542    2.5430694    34832.528 
 2170000   0.79853596  -0.11304772    2.5515147     34826.15 
 2180000    0.8015578  -0.11122798    2.5510096    34784.352 
 2190000   0.79956467  -0.10857554    2.5599395    34897.522 
 2200000     0.807058  -0.11257719    2.5551045    34787.465 
 2210000   0.80223974  -0.10226305    2.5574397    34840.915 
 2220000    0.7972029  -0.10292716    2.5392141    34775.398 
 2230000   0.80208782  -0.11191124    2.5586777     34829.15 
 2240000   0.79405904  -0.11807941    2.5565915    34877.706 
 2250000   0.79811158  -0.11047953    2.5437412    34794.946 
 2260000    0.7993412  -0.10994673    2.5517912    34830.199 
 2270000   0.79637297 -0.098688268    2.5423393    34771.411 
 2280000   0.80086855   -0.1079354    2.5419486    34770.294 
 2290000   0.79637441  -0.11269533     2.552341    34863.432 
 2300000    0.8071212  -0.10646951    2.5696996    34838.628 
 2310000   0.79922326   -0.1228071     2.549155    34820.416 
 2320000   0.80183265  -0.10650443    2.5481043    34750.224 
 2330000   0.79760873  -0.10193958    2.5561443    34829.857 
 2340000   0.80518089  -0.11154346    2.5593979    34816.825 
 2350000   0.79583953  -0.11204112    2.5431073    34809.051 
 2360000   0.79962438  -0.10961923    2.5503198    34791.481 
 2370000   0.79710847  -0.11778831    2.5484625    34838.637 
 2380000   0.80049129  -0.10670561    2.5564513     34804.93 
 2390000   0.80137327  -0.10307246    2.5510562    34803.885 
 2400000   0.79820967  -0.11668605    2.5318425    34703.668 
 2410000   0.79801195  -0.10100293    2.5586786    34844.799 
 2420000   0.80092198  -0.10764457    2.5649105    34833.306 
 2430000   0.79983632  -0.11090513     2.552184    34820.435 
 2440000   0.80342019  -0.10624008    2.5472987     34758.01 
 2450000   0.80150312  -0.10987044    2.5456988     34789.35 
 2460000   0.79768094  -0.11069211      2.52333    34683.551 
 2470000   0.79644717   -0.1088583     2.557099    34882.533 
 2480000   0.80182705  -0.11310776    2.5414375     34743.79 
 2490000   0.79905074  -0.11186911    2.5458691    34797.226 
 2500000   0.79378175  -0.10623792    2.5481503    34783.238 
 2510000   0.80297914 -0.097580062    2.5591712    34800.388 
 2520000    0.8052432  -0.10677006    2.5521599    34756.544 
 2530000   0.80303777   -0.1042967    2.5381042    34704.037 
 2540000   0.80355389  -0.10843481    2.5485936    34783.642 
 2550000   0.79767489  -0.10609134    2.5579623    34845.058 
 2560000   0.80742499  -0.10664021    2.5618567    34806.519 
 2570000    0.7970162  -0.10759052    2.5510294     34789.84 
 2580000   0.79832754   -0.1076254    2.5436833    34808.012 
 2590000   0.80313437  -0.11256135    2.5602403    34844.977 
 2600000   0.79953226  -0.10859934    2.5451968    34792.531 
 2610000   0.79745329  -0.10689904    2.5434184    34779.037 
 2620000   0.79696715  -0.10851261    2.5575836    34821.907 
 2630000   0.80020192  -0.10637216     2.554362    34847.432 
 2640000   0.80174691  -0.10899729    2.5790551    34951.014 
 2650000   0.79918865  -0.11612674    2.5413865    34737.408 
 2660000   0.80366634  -0.10977039    2.5403216      34674.4 
 2670000   0.80228791  -0.10568614    2.5431293    34718.811 
 2680000   0.80090617   -0.1144206    2.5469335    34775.802 
 2690000   0.79934631  -0.10696443     2.541874    34695.185 
 2700000   0.79842326  -0.11069696    2.5269418    34666.481 
 2710000   0.79755449  -0.10917073     2.537621    34722.367 
 2720000   0.79657433  -0.10549394    2.5299904    34714.925 
 2730000   0.79885412  -0.10466128    2.5361321    34723.412 
 2740000    0.7971753  -0.10937068    2.5307385    34690.524 
 2750000   0.79809392  -0.11335545    2.5367086    34754.798 
 2760000   0.80039117  -0.11440935    2.5293721    34680.225 
 2770000   0.80097951  -0.10983003    2.5453804    34763.756 
 2780000   0.80105406   -0.1104394     2.535763    34709.887 
 2790000   0.80107565  -0.10933977    2.5461765    34756.043 
 2800000   0.80063967  -0.10951371    2.5397633    34718.573 
 2810000   0.80631874  -0.10633773    2.5406476    34682.326 
 2820000   0.79711057  -0.10502209    2.5362073    34753.301 
 2830000   0.80216039  -0.10816117    2.5286922    34650.933 
 2840000   0.80042673  -0.10721719    2.5487098    34750.179 
 2850000   0.79981286  -0.10735344     2.538271    34718.505 
 2860000   0.80877353  -0.10152582    2.5659527     34818.14 
 2870000    0.8060486  -0.11311134    2.5600456    34793.515 
 2880000   0.80036554  -0.10669171    2.5512285    34771.615 
 2890000   0.80271053   -0.1007205     2.537467    34703.008 
 2900000   0.80089363  -0.11079253    2.5421957    34765.761 
 2910000   0.79626485   -0.1090787    2.5195843    34650.744 
 2920000   0.79790331 -0.094389313    2.5356365     34713.47 
 2930000   0.79992759  -0.10410567    2.5224617    34653.128 
 2940000   0.80100025  -0.10430699    2.5461737    34719.608 
 2950000   0.80085548 -0.098787453    2.5374345    34709.363 
 2960000   0.79838828   -0.1094148    2.5280366    34726.464 
 2970000   0.79811301   -0.1085874    2.5208076    34647.088 
 2980000   0.80055533   -0.1110321    2.5461722    34772.466 
 2990000   0.80470022  -0.11608177    2.5408998    34713.127 
 3000000   0.79709154  -0.10614961    2.5127729    34613.164 
 3010000   0.79866284  -0.10449242    2.5320624    34693.732 
 3020000   0.79832067  -0.10744182    2.5312703    34671.616 
 3030000    0.7936704  -0.11549732    2.5101117    34589.203 
 3040000   0.80640641  -0.10647007    2.5523066    34742.083 
 3050000   0.79811885  -0.11764239    2.5352716    34712.544 
 3060000    0.7992624  -0.11760003    2.5306118    34722.431 
 3070000    0.8078293  -0.10055921    2.5420272    34665.955 
 3080000   0.80763181  -0.11172378    2.5512365    34717.182 
 3090000   0.80192593  -0.10906256    2.5294392    34660.184 
 3100000   0.80209815 -0.097383323    2.5401973    34735.265 
 3110000   0.80582975  -0.10495221    2.5504217    34780.988 
 3120000   0.80010238  -0.11022908    2.5337427    34703.272 
 3130000   0.80323058  -0.11102492     2.541447    34708.019 
 3140000   0.79705383   -0.1064815    2.5228254    34664.417 
 3150000   0.79632788  -0.11302257    2.5273888    34640.628 
 3160000   0.80397926  -0.11113125    2.5306025    34628.392 
 3170000   0.79985373  -0.11305002    2.5426737    34765.808 
 3180000   0.79946768  -0.10375382    2.5410886     34745.94 
 3190000   0.79942557  -0.10423972    2.5432269    34767.271 
 3200000   0.80095271  -0.11086148    2.5288067    34668.909 
 3210000   0.79873173  -0.10241498    2.5468805    34763.651 
 3220000   0.79852927  -0.11197035    2.5482207     34807.01 
 3230000   0.79544593  -0.10955061    2.5390008    34772.393 
 3240000   0.79513985  -0.10964343    2.5183157    34646.806 
 3250000   0.80221997  -0.10928095    2.5287026    34684.316 
 3260000   0.80739257  -0.11058931    2.5492997    34736.363 
 3270000   0.80514189  -0.11283085    2.5331901    34688.501 
 3280000   0.80168997  -0.11040364    2.5410343    34708.114 
 3290000   0.79858991  -0.10429069    2.5301197    34665.184 
 3300000   0.79757567  -0.10838253    2.5266901    34672.476 
 3310000   0.79617195  -0.10588369    2.5260401    34675.247 
 3320000   0.80541884  -0.10186958    2.5197336    34605.075 
 3330000   0.79612974  -0.10810243     2.521682    34705.197 
 3340000    0.8029711  -0.10571307    2.5292903    34652.853 
 3350000   0.80103367   -0.1061587    2.5381011    34751.358 
 3360000   0.80167948  -0.10774366    2.5362219    34724.434 
 3370000   0.80150644  -0.11083738     2.514965    34627.715 
 3380000    0.7985219  -0.10512419    2.5231801    34671.535 
 3390000   0.79976496  -0.10764825    2.5394686    34690.289 
 3400000   0.80050338  -0.10249832    2.5145347    34585.387 
 3410000   0.80380316  -0.10945956    2.5460149    34739.455 
 3420000   0.80325086  -0.11177462    2.5615896    34840.654 
 3430000   0.79621105  -0.11226427    2.5278549    34712.736 
 3440000   0.79804669   -0.1112466    2.5248674    34655.102 
 3450000   0.80149889  -0.10963972    2.5514958    34778.834 
 3460000    0.7946902  -0.11007476    2.5314518     34718.47 
 3470000   0.80124392 -0.099816077    2.5489602    34820.261 
 3480000   0.80554275  -0.10316697    2.5443888     34766.36 
 3490000    0.7923138  -0.10732525    2.5310696    34747.781 
 3500000   0.80169753  -0.10772021    2.5431648    34757.704 
 3510000   0.80169775   -0.1102352    2.5321068    34706.531 
 3520000   0.80066767 -0.099593185    2.5468018    34797.869 
 3530000   0.79902194  -0.12087625    2.5396254    34759.247 
 3540000   0.80092823  -0.10503835    2.5444153    34737.968 
 3550000     0.795919  -0.11039027    2.5178893    34684.304 
 3560000   0.79769378  -0.10505369    2.5275886    34663.743 
 3570000   0.80353443  -0.10454915    2.5365597    34716.664 
 3580000   0.80496851  -0.10396598    2.5198249    34611.957 
 3590000   0.80081753  -0.10479094    2.5207801    34636.139 
 3600000   0.80286507  -0.11007894    2.5384492    34706.116 
 3610000   0.80269446  -0.11418857    2.5255059    34654.476 
 3620000   0.79802632   -0.1085076    2.5094527    34585.714 
 3630000   0.79766348  -0.11139716    2.5378172     34721.58 
 3640000   0.80029489  -0.10438886     2.524957    34656.629 
 3650000   0.80263098  -0.10796035    2.5363873    34709.909 
 3660000   0.79491591  -0.11391613    2.5314726     34754.18 
 3670000   0.79870853   -0.1121398    2.5326003    34682.126 
 3680000   0.79781652  -0.11067426    2.5247105    34696.254 
 3690000   0.80426733  -0.11419042    2.5359183    34710.139 
 3700000   0.80030486  -0.11301261     2.527472    34651.514 
 3710000   0.80590284  -0.10702766    2.5483653    34743.664 
 3720000    0.7991525  -0.10475484    2.5262999    34647.629 
 3730000   0.80514029    -0.104692    2.5524356    34775.549 
 3740000   0.80161735  -0.10944511    2.5357754    34705.683 
 3750000   0.80350316  -0.11124325    2.5306482    34654.765 
 3760000   0.80546117  -0.10807765    2.5459697    34757.121 
 3770000   0.80076454  -0.10574101    2.5319847    34646.495 
 3780000   0.79160522  -0.11345204    2.5125931    34678.952 
 3790000   0.80155935  -0.10680812    2.5500924    34768.609 
 3800000   0.79547464  -0.11076609    2.5195243    34671.039 
 3810000     0.797723  -0.10524947    2.5180129    34587.278 
 3820000   0.79908189  -0.10358514    2.5282196    34698.118 
 3830000   0.80035246 -0.097192667    2.5222375    34667.954 
 3840000   0.80067644   -0.1035319    2.5345432    34727.154 
 3850000   0.80171392  -0.10608703    2.5285902    34700.258 
 3860000   0.79974326  -0.11274843    2.5265408    34661.347 
 3870000   0.80034136  -0.10938503    2.5249672    34643.544 
 3880000   0.80244401  -0.11511547     2.532905    34675.538 
 3890000   0.79953029  -0.11068606    2.5223678    34686.316 
 3900000   0.79921687  -0.10967161    2.5154453    34616.146 
 3910000   0.79956651   -0.1094781    2.5187784    34581.601 
 3920000    0.8042215  -0.11257841    2.5183371    34597.827 
 3930000    0.7961305  -0.10439868    2.5033748    34576.628 
 3940000   0.80129512 -0.099709741    2.5262468    34686.017 
 3950000   0.79512617  -0.10816356    2.5084469    34622.953 
 3960000   0.80374581  -0.11165471    2.5303143    34630.705 
 3970000   0.79845445  -0.10597826    2.5297976    34688.945 
 3980000   0.79927991  -0.11802211    2.5158415    34602.568 
 3990000   0.79281921  -0.10114803    2.5166873    34714.935 
 4000000   0.79537323  -0.10499354    2.5178074    34678.164 
 4010000   0.80304683   -0.1110657    2.5325849    34680.968 
 4020000   0.80045208  -0.11419399    2.5280418    34651.582 
 4030000   0.79650213  -0.11494464    2.5175154    34627.516 
 4040000   0.79434193  -0.11275052    2.4970554    34515.281 
 4050000   0.80424154   -0.1092733      2.53134    34688.926 
 4060000   0.79984242  -0.11350351    2.5233735     34620.39 
 4070000   0.80179842  -0.11543146    2.5313441    34696.661 
 4080000   0.80104925  -0.11434913    2.5205662    34609.253 
 4090000    0.7992375  -0.10957339     2.535851    34716.852 
 4100000   0.79969919  -0.10770672    2.5190838    34631.666 
 4110000   0.79831672  -0.10803171    2.5133726    34644.547 
 4120000   0.79584782  -0.10253534    2.5183419    34641.915 
 4130000   0.79643469  -0.11009648    2.5170937    34657.571 
 4140000   0.80196465  -0.10594877      2.52338    34585.462 
 4150000   0.80315517  -0.11027378    2.5290631    34666.316 
 4160000   0.80038482  -0.11205109    2.5036461    34496.406 
 4170000   0.79865828  -0.11816089    2.5276892    34659.499 
 4180000   0.80423303  -0.10829885    2.5250212    34630.112 
 4190000   0.81280904  -0.11103307    2.5384716    34599.413 
 4200000   0.80243409  -0.10096463    2.5258239     34649.67 
 4210000   0.79513856  -0.10929591    2.5055313    34569.861 
 4220000   0.79844499  -0.11122456    2.5206803    34608.927 
 4230000   0.80160792   -0.1168327    2.5162867    34579.739 
 4240000   0.79868315  -0.11256393    2.5231809    34633.233 
 4250000   0.79622965  -0.10667459    2.4953857    34496.432 
 4260000   0.80122579  -0.10994222    2.5177955     34657.68 
 4270000   0.80061503  -0.10718204    2.5115094    34617.819 
 4280000   0.80037302  -0.10644072    2.5307639    34671.704 
 4290000   0.79964975  -0.10448947    2.5345369    34704.611 
 4300000   0.80340237  -0.10764646    2.5424619    34704.041 
 4310000   0.79721304  -0.10671616    2.5061983    34564.854 
 4320000   0.80007989  -0.10747775    2.5483513    34778.513 
 4330000   0.79576801  -0.11245011    2.5116398    34593.667 
 4340000   0.80252538  -0.10475752    2.5119898    34533.031 
 4350000   0.79232025  -0.10782751    2.5029489    34622.896 
 4360000   0.79956106  -0.10983741    2.5244639    34634.973 
 4370000   0.80347834 -0.098257219     2.522345    34615.537 
 4380000   0.80413829  -0.11340159     2.526898    34637.416 
 4390000   0.80281027  -0.10957424    2.5244479    34618.562 
 4400000   0.79484297  -0.10620946    2.5185244    34653.804 
 4410000   0.80923505  -0.11412794    2.5380221    34644.833 
 4420000   0.80019526  -0.11327901    2.5370825    34719.098 
 4430000   0.79759729  -0.10970026    2.5069019    34566.577 
 4440000   0.80490676  -0.11373992    2.5366442    34692.261 
 4450000   0.79414606  -0.11061774    2.5089421     34669.33 
 4460000   0.80759832  -0.11010804    2.5100326    34512.791 
 4470000   0.80490489  -0.10963817    2.5401181    34711.534 
 4480000   0.79950194  -0.11532279    2.5043402    34572.854 
 4490000   0.79840902  -0.10712564    2.5174411    34647.427 
 4500000   0.80015542  -0.10314313    2.5180388    34607.622 
 4510000   0.80113986  -0.11142147    2.5367789    34701.456 
 4520000    0.8042103  -0.10704958    2.5397345    34695.225 
 4530000   0.79738302  -0.10987935    2.5160757    34679.383 
 4540000   0.79578138  -0.10883859    2.5048098    34543.713 
 4550000   0.79944801  -0.11111406    2.5225875    34607.972 
 4560000   0.80273816  -0.10874734    2.5186452    34593.847 
 4570000   0.79645477  -0.11431661    2.5276452    34689.178 
 4580000   0.79752934  -0.10682874    2.5117927    34596.338 
 4590000   0.81146582  -0.10641556    2.5405278     34610.04 
 4600000   0.79783765  -0.10339385    2.5187317     34613.31 
 4610000   0.80253206   -0.1020368    2.5456486    34720.634 
 4620000   0.80321294  -0.11878392     2.531893    34681.246 
 4630000   0.79891567  -0.10421571    2.5208509     34661.06 
 4640000   0.80585269     -0.10634    2.5306311     34644.19 
 4650000   0.79485287  -0.11237647    2.5108676    34612.809 
 4660000   0.80493042  -0.11665401     2.527842    34670.123 
 4670000   0.80002004  -0.11117836    2.5070006    34559.434 
 4680000    0.8076299  -0.11186844    2.5263979    34567.096 
 4690000   0.79464956  -0.10998733    2.5070416    34582.832 
 4700000   0.80078232  -0.10610154    2.5354651    34700.977 
 4710000   0.80333164  -0.10314432    2.5225264    34591.425 
 4720000   0.80448364  -0.11197514    2.5473483     34716.65 
 4730000   0.79819173   -0.1121539    2.5129486    34592.616 
 4740000   0.79223336  -0.11457344    2.4887076    34512.534 
 4750000   0.78921501  -0.11572183    2.5160549    34672.326 
 4760000   0.79760662   -0.1076293    2.5096052    34586.729 
 4770000   0.80122729  -0.10949858    2.5375215    34697.717 
 4780000   0.79822527  -0.10871868    2.5297362     34670.64 
 4790000   0.79959225  -0.11109878    2.5188528    34636.428 
 4800000   0.80000434   -0.1118781    2.5197012    34596.735 
 4810000   0.79728011   -0.1096301    2.5111752    34618.669 
 4820000    0.8004494  -0.10304293      2.50837    34561.396 
 4830000   0.79858801  -0.10918307    2.5246871    34634.673 
 4840000   0.80338949  -0.11192368    2.5173572    34566.026 
 4850000   0.80219443   -0.1119582    2.5236541     34654.28 
 4860000   0.79604003   -0.1195362    2.5052054    34553.261 
 4870000   0.80042348  -0.10565401     2.517619    34656.779 
 4880000   0.80778389  -0.11665827    2.5214106    34578.761 
 4890000   0.79219888  -0.10888914    2.5121325    34650.536 
 4900000   0.79609213  -0.10686691    2.5156646    34650.147 
 4910000   0.80099334  -0.11185393    2.5180738    34610.099 
 4920000   0.79865206  -0.11087563    2.5225193    34635.531 
 4930000   0.80535506  -0.10584396    2.5370354    34661.481 
 4940000   0.80130807  -0.10800472    2.5139362    34554.994 
 4950000   0.79783529  -0.11040592    2.5074279    34531.284 
 4960000   0.80282345  -0.12217004    2.5308156    34675.986 
 4970000   0.80359343  -0.11132358    2.5245535    34590.702 
 4980000   0.80190144    -0.112947    2.5421826    34752.162 
 4990000   0.80016949  -0.10984739    2.5140867    34585.584 
 5000000    0.8035567  -0.11228912    2.5467858    34730.959 
 5010000   0.79186587  -0.10975797    2.4983238    34587.618 
 5020000   0.80550748  -0.12007882    2.5135805    34524.494 
 5030000   0.79187186  -0.10839469    2.5088023    34658.756 
 5040000   0.79079822  -0.11111775     2.495353    34544.738 
 5050000   0.79615881  -0.10659972    2.5013545    34553.319 
 5060000   0.80412036  -0.11723551    2.5204111    34675.782 
 5070000   0.79428358  -0.10544542    2.5042186    34622.457 
 5080000   0.80359845  -0.10587205    2.5218686     34605.75 
 5090000   0.79763064  -0.11636168    2.5189144    34673.378 
 5100000   0.80214046  -0.10765605    2.5325357     34662.17 
 5110000   0.79923384  -0.11150451    2.5070228    34570.849 
 5120000   0.80329854  -0.11195587    2.5343833    34653.734 
 5130000   0.79624226  -0.11251002    2.5223446    34681.204 
 5140000   0.79600011  -0.10661264    2.4952422    34528.201 
 5150000   0.79498088  -0.10713028    2.5193655    34654.868 
 5160000   0.80294458  -0.10864047    2.5147835    34590.685 
 5170000    0.7985668  -0.11267253    2.5213899    34620.274 
 5180000   0.80068787   -0.1022036    2.4935457    34463.536 
 5190000    0.7931516  -0.11191903    2.4993244    34584.382 
 5200000   0.79524449  -0.11396008    2.5086497    34619.647 
 5210000   0.80194116  -0.10949186    2.5157895    34649.416 
 5220000   0.79694059  -0.10589076    2.5279435    34686.529 
 5230000    0.7988741  -0.10448835    2.5127675    34581.703 
 5240000   0.80275625  -0.11229405    2.5000978    34504.098 
 5250000   0.80012448  -0.10747755    2.5361095    34749.485 
 5260000   0.80080497  -0.10876747    2.5115848    34587.162 
 5270000   0.80049544  -0.11769747    2.5105436     34604.71 
 5280000   0.80100124  -0.10795329    2.5267477    34646.907 
 5290000   0.80338662  -0.11508083    2.5264921    34643.607 
 5300000   0.79116714  -0.12370243      2.50148    34614.545 
 5310000   0.80399594  -0.11759767    2.5260788     34667.73 
 5320000   0.80227619  -0.10875953    2.5126695    34626.229 
 5330000   0.80294221  -0.10898537    2.5201984     34604.22 
 5340000   0.79809108  -0.11248497    2.5104563    34565.516 
 5350000   0.80009589  -0.11567458    2.5225749    34639.526 
 5360000   0.79424574  -0.11217857    2.5094164    34608.198 
 5370000   0.79921601  -0.10711862    2.5278192    34675.433 
 5380000   0.79615243  -0.11161907    2.5050894    34622.768 
 5390000   0.79719665  -0.11093332    2.5238082    34689.017 
 5400000   0.80181756  -0.10658593    2.5272912    34688.041 
 5410000   0.80038538  -0.12174832    2.5109259    34596.288 
 5420000   0.80019411  -0.10606345    2.5242407     34634.61 
 5430000   0.80062871  -0.10605759    2.5345434    34709.288 
 5440000   0.80236138  -0.11124157     2.511609    34556.755 
 5450000   0.79758318  -0.10194847    2.5191335    34643.625 
 5460000   0.80527815  -0.10642425    2.5249602    34644.478 
 5470000   0.79883471   -0.1080095    2.5023425    34542.187 
 5480000    0.7990903  -0.11716635     2.516983    34636.139 
 5490000   0.80021536  -0.10907852    2.5262158    34648.837 
 5500000   0.80108072  -0.10868021    2.5286455     34665.21 
 5510000   0.79901268  -0.11696604    2.5237997    34650.245 
 5520000   0.80081475  -0.10185603    2.5171678    34613.821 
 5530000    0.8033985  -0.10677137    2.5220359    34590.627 
 5540000    0.8010732  -0.10814442    2.5092029    34554.206 
 5550000    0.8104408  -0.11911511    2.5385032    34655.577 
 5560000   0.80195288  -0.11229118     2.537917    34718.065 
 5570000   0.79401065  -0.11910869    2.5066613    34560.953 
 5580000   0.80399286  -0.10654765     2.521906    34642.167 
 5590000   0.79300844  -0.11877551     2.505227    34612.001 
 5600000   0.80101267  -0.10325672    2.5191009    34642.944 
 5610000   0.79480329  -0.10586138    2.5265001     34706.41 
 5620000   0.79437031  -0.10961005     2.493013    34525.216 
 5630000   0.79628365  -0.10225952    2.5348701    34726.412 
 5640000   0.80916378  -0.11684942    2.5290008    34593.396 
 5650000   0.79538768  -0.11541548    2.4993574    34567.091 
 5660000   0.80070022   -0.1148542    2.5245316    34646.328 
 5670000   0.79960755  -0.11513095    2.5126762    34583.305 
 5680000   0.80185641  -0.10795458     2.511637    34588.032 
 5690000   0.79207758  -0.10752202    2.5051203    34627.252 
 5700000   0.79970776  -0.10618243    2.5162409    34626.247 
 5710000   0.80376957  -0.10796588    2.5135629    34535.595 
 5720000   0.79535544  -0.11631041    2.4989006    34545.457 
 5730000    0.8019065   -0.1116227    2.5190135    34633.296 
 5740000   0.79986937  -0.11341277    2.5083833    34551.908 
 5750000   0.80522241  -0.10388425    2.5182584    34575.606 
 5760000   0.78973947  -0.10313543    2.5041508    34619.391 
 5770000   0.80204285  -0.11080596    2.5260077    34638.948 
 5780000   0.79752069  -0.10947375    2.4948824    34500.414 
 5790000   0.79914871  -0.12235775    2.5106267    34570.215 
 5800000   0.79660585  -0.11201454    2.5135024    34583.763 
 5810000   0.79636072   -0.1189754     2.498108    34522.299 
 5820000    0.8055942  -0.11393503     2.524016    34617.877 
 5830000    0.7977452  -0.10736727    2.5143528    34603.053 
 5840000    0.8067907  -0.10354262    2.5175568    34567.321 
 5850000   0.79566895  -0.10954106    2.5071538    34619.775 
 5860000   0.79801031  -0.10569446    2.4994817    34522.334 
 5870000   0.80301714  -0.10800331    2.5094076    34579.808 
 5880000   0.79807832  -0.11497544      2.52103    34643.877 
 5890000   0.80431015  -0.10855763    2.5379287    34687.265 
 5900000   0.79838833   -0.1115441    2.5163649    34622.237 
 5910000   0.80028229  -0.10645985    2.5304253    34687.748 
 5920000   0.80363349  -0.10844809    2.5261175    34613.126 
 5930000   0.79626394  -0.11580566    2.5058023    34566.569 
 5940000   0.80304331  -0.10958886    2.5302342    34694.011 
 5950000    0.8026121  -0.11140512    2.5228643    34646.253 
 5960000   0.80119783  -0.10642105    2.5130219    34593.817 
 5970000   0.80368404   -0.1133133    2.5159795    34560.858 
 5980000   0.80357141  -0.11275739    2.5090272    34564.698 
 5990000   0.80423793  -0.11320454    2.5111809     34585.56 
 6000000   0.80908862  -0.11227231    2.5194921    34559.375 
 6010000   0.80314612  -0.11446188    2.5086904    34595.995 
 6020000   0.80032346  -0.11172727    2.5216822    34643.488 
 6030000   0.79825263  -0.10422971    2.5063284    34582.363 
 6040000   0.80399572  -0.10315969    2.5093407    34551.515 
 6050000   0.79606081  -0.11870361    2.5080897    34625.979 
 6060000   0.80326164  -0.11212606    2.5167876    34576.132 
 6070000   0.79543244  -0.10685064    2.5128793     34631.35 
 6080000   0.79492251  -0.10881561    2.5071498    34602.559 
 6090000   0.79210011  -0.11208876    2.5026052    34592.842 
 6100000   0.80303033  -0.11001722    2.5142402    34543.937 
 6110000   0.80575655  -0.11503564    2.5225277    34579.007 
 6120000    0.8004558  -0.11211851    2.5089085    34549.437 
 6130000   0.80206854  -0.11264525     2.526046    34629.289 
 6140000   0.80037752  -0.10064529    2.5218941    34642.217 
 6150000   0.80277523  -0.11358253    2.5103485    34527.585 
 6160000   0.80667871  -0.10560714    2.5309859     34647.19 
 6170000   0.79746408   -0.1089657    2.4966249     34507.67 
 6180000   0.79768512  -0.11301173    2.5086614    34598.637 
 6190000   0.79948021  -0.10972748    2.5162831    34649.333 
 6200000   0.80863008  -0.11820712     2.532081    34628.096 
 6210000   0.80500655  -0.11538089    2.5020401     34476.88 
 6220000   0.79560086   -0.1110365    2.4909089    34517.998 
 6230000   0.80116704  -0.11555423    2.5118907    34535.016 
 6240000    0.7966154  -0.11405337    2.5320678    34703.654 
 6250000   0.79957921  -0.11505828    2.5091646    34612.279 
 6260000   0.79659246   -0.1130545    2.5055863    34626.627 
 6270000   0.80281967  -0.11354656    2.5192258    34604.488 
 6280000    0.8009853  -0.10552558    2.5073367    34576.883 
 6290000    0.8043809  -0.10147834     2.516286    34629.048 
 6300000   0.80464762  -0.10803638    2.5111568    34571.653 
 6310000   0.80284785   -0.1145127    2.5087726    34569.671 
 6320000    0.7975816  -0.10513343    2.5016344     34550.28 
 6330000   0.79381859  -0.11687149    2.5108532    34621.608 
 6340000   0.80386361  -0.10440635    2.5098457    34552.004 
 6350000   0.80528935  -0.10494224    2.5027534    34485.903 
 6360000    0.7947611  -0.11115632    2.5057212    34592.482 
 6370000   0.80641069  -0.10535112    2.5055157    34492.765 
 6380000   0.80268385  -0.11096511    2.5318276    34692.346 
 6390000   0.80404063  -0.11078462    2.5062455    34520.011 
 6400000   0.79737829  -0.11144479     2.520142    34664.235 
 6410000    0.7970358  -0.10418473    2.5057023    34605.768 
 6420000   0.79699389  -0.11043894    2.5228828     34681.29 
 6430000   0.80102768  -0.11024815    2.5167369    34619.714 
 6440000   0.80492569  -0.11879624     2.517543     34610.13 
 6450000   0.79320416  -0.10561667    2.5145666    34649.933 
 6460000   0.79966575  -0.11522225    2.4966716    34481.853 
 6470000   0.80435084  -0.10992289    2.5291069    34693.093 
 6480000   0.80378621  -0.11104484     2.510341    34537.725 
 6490000   0.79860528  -0.10552018     2.532851    34675.686 
 6500000   0.79585663  -0.11403209    2.5269428    34711.488 
 6510000   0.80213998  -0.11324061    2.5092274    34566.401 
 6520000   0.79621132  -0.11557818    2.5083931    34595.322 
 6530000   0.79539735  -0.10265944    2.5234426    34729.122 
 6540000   0.80396821  -0.11022082    2.5066691    34524.911 
 6550000   0.79875883   -0.1214758    2.5207442    34614.662 
 6560000   0.80919237  -0.10613199     2.515492    34518.726 
 6570000   0.79621907  -0.10631621    2.5248144    34734.463 
 6580000   0.80522928  -0.10754773    2.4965058    34494.843 
 6590000   0.80446293  -0.10443381    2.5146845    34618.045 
 6600000   0.79653773  -0.10859033    2.5126818    34610.348 
 6610000   0.80091818  -0.11259811    2.5083243     34572.01 
 6620000   0.79586271  -0.10368566    2.5171358     34680.45 
 6630000   0.80286649  -0.10352733    2.5034756    34516.305 
 6640000   0.80027384  -0.10581872    2.5049971    34568.337 
 6650000   0.80454988  -0.10395583    2.4956808    34438.763 
 6660000    0.7999112  -0.11103823    2.5247671    34681.545 
 6670000   0.80125183  -0.11206024    2.5136495    34641.943 
 6680000   0.80098828  -0.11257163     2.512263    34572.303 
 6690000   0.79486383  -0.11724316    2.5032077    34581.162 
 6700000   0.80051648  -0.11155825    2.5130263    34565.196 
 6710000   0.80453054  -0.10591077    2.5316593     34691.04 
 6720000   0.79692005  -0.11390798    2.5137214    34626.193 
 6730000   0.79340477  -0.11040442    2.5057126    34610.702 
 6740000   0.80302447  -0.11506773    2.5024595    34533.064 
 6750000   0.79665765  -0.10778267    2.4954556    34553.462 
 6760000   0.80034318  -0.11569726    2.4943041    34488.693 
 6770000   0.80521239  -0.10829742    2.5373235    34661.794 
 6780000    0.7984064  -0.11319463    2.4979313    34486.107 
 6790000   0.80452185  -0.10479565    2.5292408    34648.718 
 6800000   0.80309777  -0.10865094    2.5103569    34547.073 
 6810000   0.80040353  -0.10465692    2.5085242    34571.202 
 6820000   0.80173514  -0.10952127    2.4922322     34483.34 
 6830000   0.79428039  -0.11522109    2.4971256     34565.28 
 6840000    0.7957958  -0.11281166     2.511075    34623.124 
 6850000   0.80413587  -0.12234525    2.5259242    34643.706 
 6860000    0.8040686  -0.12240354    2.5153047    34563.202 
 6870000   0.80361561  -0.11426365    2.5086292    34538.281 
 6880000   0.79521944  -0.11636023    2.5043114    34571.671 
 6890000   0.80170753   -0.1083166    2.5117608    34547.876 
 6900000   0.80325301  -0.11283337    2.4985911    34537.074 
 6910000   0.80290087  -0.11269628    2.5086056    34563.796 
 6920000   0.79353826  -0.11996654    2.4948757    34544.454 
 6930000   0.80232738  -0.11206161    2.5134954    34581.402 
 6940000   0.80175762  -0.11012467     2.488577    34439.648 
 6950000   0.79757084  -0.11069791    2.4895981    34487.174 
 6960000   0.80186208  -0.10534444    2.5107711    34567.404 
 6970000   0.79856517  -0.11411487    2.5090225    34645.887 
 6980000    0.7996555  -0.10334085    2.5134971    34612.496 
 6990000   0.80326255  -0.11388144    2.5022532    34528.783 
 7000000   0.80349721  -0.11145521    2.4998121    34490.143 
Loop time of 3920.71 on 216 procs for 5000000 steps with 27950 atoms

Performance: 550920.682 tau/day, 1275.279 timesteps/s
99.9% CPU use with 216 MPI tasks x 1 OpenMP threads

MPI task timing breakdown:
Section |  min time  |  avg time  |  max time  |%varavg| %total
---------------------------------------------------------------
Pair    | 426.51     | 469.9      | 532.4      |  99.1 | 11.98
Bond    | 8.201      | 9.5362     | 11.514     |  18.9 |  0.24
Neigh   | 501        | 532.84     | 568.78     |  63.9 | 13.59
Comm    | 779.24     | 1019       | 1164.5     | 187.6 | 25.99
Output  | 2.0336     | 2.0381     | 2.0775     |   0.2 |  0.05
Modify  | 1533.1     | 1643.7     | 1749.7     | 114.3 | 41.92
Other   |            | 243.7      |            |       |  6.22

Nlocal:    129.398 ave 180 max 111 min
Histogram: 11 50 91 47 5 5 2 1 1 3
Nghost:    956.505 ave 1042 max 906 min
Histogram: 16 28 38 51 32 23 15 4 8 1
Neighs:    4657.21 ave 7686 max 3649 min
Histogram: 13 70 85 31 6 4 2 1 2 2

Total # of neighbors = 1005958
Ave neighs/atom = 35.9913
Ave special neighs/atom = 0.62254
Neighbor list builds = 693840
Dangerous builds = 25
System init for write_restart ...
Setting atom values ...
  9000 settings made for charge
Setting atom values ...
  9000 settings made for charge
Setting atom values ...
  950 settings made for charge
Setting atom values ...
  950 settings made for charge
System init for write_data ...
PPPM initialization ...
  using 12-bit tables for long-range coulomb (src/kspace.cpp:332)
  G vector (1/distance) = 1.20588
  grid = 108 108 108
  stencil order = 5
  estimated absolute RMS force accuracy = 0.000129295
  estimated relative force accuracy = 0.000129295
  using double precision FFTW3
  3d grid and FFT values/proc = 12167 5832
WARNING: Neighbor exclusions used with KSpace solver may give inconsistent Coulombic energies (src/neighbor.cpp:486)
Neighbor list info ...
  update every 1 steps, delay 0 steps, check yes
  max neighbors/atom: 2000, page size: 100000
  master list distance cutoff = 2.8
  ghost atom cutoff = 2.8
  binsize = 1.4, bins = 24 24 24
  2 neighbor lists, perpetual/occasional/extra = 2 0 0
  (1) pair lj/cut, perpetual
      attributes: half, newton on
      pair build: half/bin/newton
      stencil: half/bin/3d/newton
      bin: standard
  (2) pair coul/long, perpetual, skip from (1)
      attributes: half, newton on
      pair build: skip
      stencil: none
      bin: none
PPPM initialization ...
  using 12-bit tables for long-range coulomb (src/kspace.cpp:332)
  G vector (1/distance) = 1.20588
  grid = 108 108 108
  stencil order = 5
  estimated absolute RMS force accuracy = 0.000129295
  estimated relative force accuracy = 0.000129295
  using double precision FFTW3
  3d grid and FFT values/proc = 12167 5832
WARNING: Neighbor exclusions used with KSpace solver may give inconsistent Coulombic energies (src/neighbor.cpp:486)
Neighbor list info ...
  update every 1 steps, delay 0 steps, check yes
  max neighbors/atom: 2000, page size: 100000
  master list distance cutoff = 2.8
  ghost atom cutoff = 2.8
  binsize = 1.4, bins = 24 24 24
  2 neighbor lists, perpetual/occasional/extra = 2 0 0
  (1) pair lj/cut, perpetual
      attributes: half, newton on
      pair build: half/bin/newton
      stencil: half/bin/3d/newton
      bin: standard
  (2) pair coul/long, perpetual, skip from (1)
      attributes: half, newton on
      pair build: skip
      stencil: none
      bin: none
Setting up Verlet run ...
  Unit style    : lj
  Current step  : 7000000
  Time step     : 0.005
Per MPI rank memory allocation (min/avg/max) = 15.14 | 16.48 | 17.15 Mbytes
Step Temp Press TotEng Volume 
 7000000   0.80349721   -0.7879581    2.9110205    34490.143 
 7010000   0.79834005  -0.33282302    1.0114388    34490.143 
 7020000   0.79611246  -0.30542267   0.98406923    34490.143 
 7030000   0.80189989  -0.35589138   0.97938262    34490.143 
 7040000   0.80454612   -0.2787886   0.98788479    34490.143 
 7050000   0.79559405  -0.37321254   0.96513451    34490.143 
 7060000   0.80329384  -0.27169828   0.98806308    34490.143 
 7070000   0.80409254  -0.24755713     0.974643    34490.143 
 7080000   0.80460637  -0.27135352   0.96910275    34490.143 
 7090000   0.80254907  -0.28588641   0.97901706    34490.143 
 7100000    0.8009353  -0.28271185   0.97161763    34490.143 
 7110000   0.80613135  -0.29296245   0.96905474    34490.143 
 7120000   0.79794497  -0.34219207   0.94940279    34490.143 
 7130000   0.80193664  -0.33989619   0.96466077    34490.143 
 7140000   0.80056451  -0.29920962   0.96031133    34490.143 
 7150000   0.79658128  -0.26339247   0.96185744    34490.143 
 7160000   0.80031522   -0.3626503   0.95442946    34490.143 
 7170000   0.80366548  -0.35353044   0.96857569    34490.143 
 7180000   0.80497865  -0.36450785   0.96061876    34490.143 
 7190000   0.79822149  -0.33223725    0.9578206    34490.143 
 7200000   0.79487858  -0.24338138   0.95701581    34490.143 
 7210000   0.80476497  -0.27910913   0.96774783    34490.143 
 7220000   0.80330655  -0.25906185   0.96110758    34490.143 
 7230000   0.79868296  -0.28176549   0.95564582    34490.143 
 7240000   0.80653402  -0.34881469   0.96275118    34490.143 
 7250000   0.79991792  -0.33542677   0.95597982    34490.143 
 7260000   0.79865977  -0.27994083   0.96012215    34490.143 
 7270000   0.79936345   -0.3576613   0.96216598    34490.143 
 7280000   0.80798358  -0.37040476   0.97197187    34490.143 
 7290000   0.79554847  -0.38901092   0.94618026    34490.143 
 7300000    0.8000261  -0.29699763   0.94635159    34490.143 
 7310000   0.79625974  -0.30490755   0.94782865    34490.143 
 7320000   0.79926386  -0.39547972   0.95222247    34490.143 
 7330000   0.79793892  -0.34181827   0.94852924    34490.143 
 7340000   0.80328194  -0.37439778   0.96186225    34490.143 
 7350000   0.80856128  -0.29179778   0.96979384    34490.143 
 7360000   0.80392145  -0.30667512   0.96044415    34490.143 
 7370000   0.80379079  -0.28144352   0.97071382    34490.143 
 7380000   0.80803449  -0.32760218      0.96113    34490.143 
 7390000   0.80403044  -0.32688528   0.96005084    34490.143 
 7400000   0.79880878  -0.32381977   0.94041738    34490.143 
 7410000   0.79740621  -0.31067107   0.94081711    34490.143 
 7420000    0.8013649  -0.34796382    0.9484088    34490.143 
 7430000   0.80678594  -0.31479276   0.97028996    34490.143 
 7440000   0.79188993  -0.28557579   0.94476636    34490.143 
 7450000   0.79455259  -0.29705641   0.94853381    34490.143 
 7460000   0.79807434  -0.33013585   0.95271412    34490.143 
 7470000   0.80496654  -0.36858754   0.96007615    34490.143 
 7480000   0.80026316  -0.25862839   0.95682426    34490.143 
 7490000   0.79818079  -0.35044918   0.94399587    34490.143 
 7500000   0.79676169  -0.32502296   0.94040294    34490.143 
 7510000   0.79782863  -0.26753189   0.94885764    34490.143 
 7520000   0.79920847  -0.32219235   0.94860795    34490.143 
 7530000   0.79701204  -0.25839141   0.95295203    34490.143 
 7540000   0.79705877  -0.31266661   0.94784523    34490.143 
 7550000   0.80101441  -0.27257264   0.96004832    34490.143 
 7560000   0.80526632  -0.27413727     0.956409    34490.143 
 7570000   0.80605005  -0.27948404   0.95681527    34490.143 
 7580000    0.8045604  -0.36544537   0.95388902    34490.143 
 7590000   0.79554633  -0.33138499   0.94915548    34490.143 
 7600000   0.80936595  -0.31349962    0.9611755    34490.143 
 7610000    0.7969305  -0.24487499   0.94647293    34490.143 
 7620000   0.79816113   -0.3194418   0.94688421    34490.143 
 7630000   0.79339346  -0.29954215   0.93397565    34490.143 
 7640000   0.79926883  -0.31201115   0.94555075    34490.143 
 7650000   0.79446038  -0.30832227   0.94648301    34490.143 
 7660000   0.79693267  -0.34360567   0.95527858    34490.143 
 7670000   0.79525652  -0.35904904   0.94123727    34490.143 
 7680000   0.80327597  -0.28444323   0.96946103    34490.143 
 7690000   0.80214788  -0.27167263   0.95172973    34490.143 
 7700000   0.79311983  -0.32822058   0.94192102    34490.143 
 7710000   0.80241318  -0.38022637   0.95266758    34490.143 
 7720000    0.7968777   -0.1927693     0.947505    34490.143 
 7730000   0.80532307  -0.34129974   0.95872727    34490.143 
 7740000   0.80098111  -0.32765573   0.94989923    34490.143 
 7750000   0.80806714  -0.23532309   0.96794249    34490.143 
 7760000    0.7984788  -0.32861887   0.95532321    34490.143 
 7770000   0.80435822  -0.34542812   0.95144573    34490.143 
 7780000   0.79902143  -0.28577325   0.95259246    34490.143 
 7790000   0.80683854  -0.25769834   0.97162825    34490.143 
 7800000   0.79992677  -0.34081895   0.94958655    34490.143 
 7810000   0.79783186  -0.25349063   0.94269349    34490.143 
 7820000   0.79306495  -0.26991483   0.94381101    34490.143 
 7830000   0.80319904  -0.32440152   0.96367655    34490.143 
 7840000   0.79812258  -0.30686296   0.94778304    34490.143 
 7850000   0.80203344  -0.31684162   0.95600139    34490.143 
 7860000   0.79883281  -0.30922602   0.94511251    34490.143 
 7870000   0.80684905  -0.20703887   0.96919365    34490.143 
 7880000   0.79288601   -0.2921338   0.93665084    34490.143 
 7890000    0.7968064  -0.38168293   0.94201704    34490.143 
 7900000   0.80210511  -0.31560017   0.94791823    34490.143 
 7910000   0.79539235  -0.30099364   0.94557553    34490.143 
 7920000   0.79648949  -0.35007917   0.94555848    34490.143 
 7930000     0.796369  -0.28719032   0.94800973    34490.143 
 7940000   0.80268991  -0.27614016   0.96391341    34490.143 
 7950000   0.79722333  -0.39226676   0.94015937    34490.143 
 7960000   0.80071056  -0.31116799   0.96126858    34490.143 
 7970000   0.80393844  -0.27941791   0.95627652    34490.143 
 7980000   0.79801841  -0.26533839   0.94310522    34490.143 
 7990000   0.80393931  -0.27612782   0.96089642    34490.143 
 8000000   0.79500057  -0.27206749   0.94738205    34490.143 
 8010000   0.79964716   -0.3413676   0.94242108    34490.143 
 8020000   0.79717835  -0.37634867   0.94266041    34490.143 
 8030000   0.79823073  -0.35442667   0.94132405    34490.143 
 8040000   0.80419026   -0.2792985   0.95886786    34490.143 
 8050000     0.796148  -0.36843232   0.94384224    34490.143 
 8060000   0.79854291  -0.34942602   0.94965663    34490.143 
 8070000   0.79617412  -0.29015088    0.9505272    34490.143 
 8080000   0.80448826   -0.3697877   0.95556069    34490.143 
 8090000   0.79281102  -0.33525556   0.93967384    34490.143 
 8100000   0.79729387  -0.32329175   0.94642066    34490.143 
 8110000   0.80053116  -0.25798639    0.9588262    34490.143 
 8120000   0.79959182  -0.27234565   0.94681342    34490.143 
 8130000   0.80209921  -0.32527653   0.94879428    34490.143 
 8140000   0.80620923  -0.23906067   0.96556801    34490.143 
 8150000   0.79181977  -0.25944176   0.94258411    34490.143 
 8160000   0.80889738  -0.35660323   0.96278906    34490.143 
 8170000    0.7977561  -0.32395762   0.94737573    34490.143 
 8180000   0.79897648  -0.27752092   0.95357291    34490.143 
 8190000   0.80023042   -0.2558558   0.95167253    34490.143 
 8200000    0.8104082  -0.35024866   0.98104545    34490.143 
 8210000   0.79747447   -0.3531768   0.94961229    34490.143 
 8220000   0.80206091  -0.31866207   0.95133606    34490.143 
 8230000    0.7901854  -0.35869504   0.93635293    34490.143 
 8240000   0.79596731  -0.36183587   0.94708274    34490.143 
 8250000   0.79625053  -0.32284221   0.95857074    34490.143 
 8260000   0.79817741  -0.26126615   0.94209294    34490.143 
 8270000    0.8003232  -0.35803946   0.94411033    34490.143 
 8280000   0.79908718  -0.35467745   0.94048159    34490.143 
 8290000    0.7986184  -0.31510108    0.9444515    34490.143 
 8300000   0.79906742  -0.37544903   0.94683544    34490.143 
 8310000   0.80545625  -0.22192326   0.95955112    34490.143 
 8320000   0.79526197  -0.33384802   0.93577077    34490.143 
 8330000   0.79557736  -0.34194087   0.92840967    34490.143 
 8340000    0.8027431   -0.3176799   0.95195252    34490.143 
 8350000   0.79170248  -0.33089904   0.93333631    34490.143 
 8360000   0.80147979  -0.26898077   0.95518004    34490.143 
 8370000   0.80057614  -0.32598299   0.95156879    34490.143 
 8380000   0.79819744  -0.30322644   0.94554471    34490.143 
 8390000   0.80257453  -0.29894703   0.95462997    34490.143 
 8400000   0.79431632   -0.3512974   0.94150945    34490.143 
 8410000   0.79538563  -0.30794079   0.94715047    34490.143 
 8420000   0.80000352  -0.32038195   0.94500475    34490.143 
 8430000   0.80048514  -0.33006304   0.95875757    34490.143 
 8440000   0.80517553  -0.37370848   0.95150747    34490.143 
 8450000   0.79805716  -0.35118977    0.9441145    34490.143 
 8460000   0.79629708     -0.23237     0.947403    34490.143 
 8470000   0.80176982  -0.27140596   0.96140189    34490.143 
 8480000   0.79926766  -0.33218811   0.94793572    34490.143 
 8490000   0.79712914  -0.27625692   0.95198241    34490.143 
 8500000   0.79560563  -0.31856656   0.93811823    34490.143 
 8510000   0.80384612  -0.30118236   0.95463143    34490.143 
 8520000   0.79028278  -0.32471885   0.93297068    34490.143 
 8530000   0.80331502  -0.37091924   0.95063195    34490.143 
 8540000   0.80478349  -0.34794416   0.95370987    34490.143 
 8550000   0.79588064  -0.32470286   0.93997745    34490.143 
 8560000   0.80253379  -0.27950868   0.95555949    34490.143 
 8570000   0.80105581  -0.35136382   0.94242247    34490.143 
 8580000   0.79849171  -0.33737217   0.95210309    34490.143 
 8590000   0.79738869   -0.2698093    0.9421825    34490.143 
 8600000   0.79705237  -0.21863578   0.94706671    34490.143 
 8610000   0.80104591  -0.30224306   0.95166181    34490.143 
 8620000   0.79621622  -0.37327205   0.94413503    34490.143 
 8630000   0.80511681   -0.2659681   0.96062986    34490.143 
 8640000   0.79637943  -0.30167511   0.94675682    34490.143 
 8650000   0.80470246  -0.29824279   0.95902651    34490.143 
 8660000   0.79979904   -0.3530803   0.94703534    34490.143 
 8670000    0.8011742  -0.30844358   0.94879061    34490.143 
 8680000    0.8027079  -0.31616618    0.9546599    34490.143 
 8690000   0.80022671   -0.2965312    0.9461637    34490.143 
 8700000   0.79759704  -0.29370197   0.94239274    34490.143 
 8710000   0.79791095   -0.2572167   0.94657027    34490.143 
 8720000   0.80266545  -0.25124041   0.95708435    34490.143 
 8730000   0.80277561  -0.31556754   0.94808945    34490.143 
 8740000   0.79762383  -0.29010611   0.94123952    34490.143 
 8750000   0.79541205   -0.3217625   0.94408988    34490.143 
 8760000   0.79963965  -0.28086164   0.94614429    34490.143 
 8770000   0.80008668  -0.28107074   0.95036833    34490.143 
 8780000   0.80056818   -0.2946564   0.94401425    34490.143 
 8790000   0.80241321  -0.35996774   0.94827069    34490.143 
 8800000   0.80486396  -0.31725122   0.95487377    34490.143 
 8810000   0.80430762  -0.32717548    0.9584127    34490.143 
 8820000   0.79185173  -0.37820521   0.92520622    34490.143 
 8830000   0.79993484  -0.30645505   0.94904051    34490.143 
 8840000    0.8039344  -0.36061314   0.94105419    34490.143 
 8850000   0.79578026  -0.34069481   0.93653582    34490.143 
 8860000   0.80246494  -0.26199754   0.95733223    34490.143 
 8870000   0.79882464  -0.37199812   0.94008851    34490.143 
 8880000   0.79861416  -0.31634564   0.94189422    34490.143 
 8890000   0.79831384  -0.27035209   0.95403002    34490.143 
 8900000   0.80075957  -0.33778247    0.9448976    34490.143 
 8910000   0.79996155  -0.26562902   0.95807054    34490.143 
 8920000   0.79275671  -0.32801332   0.93323792    34490.143 
 8930000   0.79815453  -0.30960657   0.94717215    34490.143 
 8940000   0.79689419  -0.34018413   0.94597241    34490.143 
 8950000    0.8072398  -0.30432991   0.95644028    34490.143 
 8960000   0.79586194  -0.37154691   0.93444318    34490.143 
 8970000   0.80257516  -0.33791336   0.95140715    34490.143 
 8980000   0.80084505  -0.24692846   0.95921801    34490.143 
 8990000   0.80149924  -0.31676304    0.9461084    34490.143 
 9000000   0.80507707  -0.33331294   0.95996248    34490.143 
 9010000    0.7941241  -0.32094539   0.93570721    34490.143 
 9020000   0.79704485  -0.33740458   0.94235248    34490.143 
 9030000   0.79786703  -0.39819808   0.94735844    34490.143 
 9040000   0.79839153  -0.28517272   0.94266272    34490.143 
 9050000   0.79433465  -0.41161358    0.9254849    34490.143 
 9060000   0.79888535  -0.29900719   0.94835318    34490.143 
 9070000   0.80253172   -0.2805471   0.96397025    34490.143 
 9080000   0.79820988  -0.33011281   0.94651406    34490.143 
 9090000   0.79907152  -0.33350523    0.9482758    34490.143 
 9100000   0.79659282  -0.41150328   0.93959217    34490.143 
 9110000   0.80116161  -0.27934419   0.95279527    34490.143 
 9120000   0.80477665  -0.25710044   0.95808278    34490.143 
 9130000   0.79118574   -0.3655861   0.92411109    34490.143 
 9140000   0.79538277  -0.25736697   0.93946758    34490.143 
 9150000   0.80303272  -0.27557767   0.95167568    34490.143 
 9160000   0.79809906  -0.34818462   0.94727206    34490.143 
 9170000   0.79920865  -0.22520406   0.95189764    34490.143 
 9180000   0.80057853  -0.33382271   0.94593004    34490.143 
 9190000   0.79648103  -0.23503508    0.9429577    34490.143 
 9200000   0.79435763  -0.28381063   0.94142088    34490.143 
 9210000    0.8024961  -0.24660918   0.95565579    34490.143 
 9220000   0.80300665   -0.3708326   0.94403015    34490.143 
 9230000   0.79959926  -0.31835929   0.95871222    34490.143 
 9240000   0.79548965   -0.2605129   0.93850514    34490.143 
 9250000   0.80723453  -0.29556818   0.96259957    34490.143 
 9260000   0.79966058  -0.31137502   0.95223802    34490.143 
 9270000    0.8041903  -0.29039524   0.95041749    34490.143 
 9280000   0.80462932  -0.29726186   0.95814812    34490.143 
 9290000   0.80321356  -0.29607308   0.95061829    34490.143 
 9300000   0.79845931  -0.28781837   0.94328976    34490.143 
 9310000   0.80152429  -0.30420561   0.94573538    34490.143 
 9320000    0.7966905  -0.30803601   0.94083998    34490.143 
 9330000   0.79583363  -0.33639643   0.94827229    34490.143 
 9340000   0.79050088  -0.34781878   0.93521436    34490.143 
 9350000    0.8024167  -0.28182111   0.95631224    34490.143 
 9360000   0.80291045    -0.322093    0.9448151    34490.143 
 9370000   0.80298396  -0.31956098   0.94854216    34490.143 
 9380000   0.80182428  -0.27187851   0.95405104    34490.143 
 9390000   0.80010644  -0.24489865    0.9492362    34490.143 
 9400000   0.80674094  -0.30539839   0.95098412    34490.143 
 9410000   0.80090494  -0.32643673   0.95284022    34490.143 
 9420000   0.79956655  -0.34006948    0.9526928    34490.143 
 9430000   0.79960619  -0.27143958   0.94749465    34490.143 
 9440000   0.80515954  -0.27282862   0.96275714    34490.143 
 9450000   0.79905755   -0.3219618   0.94672038    34490.143 
 9460000   0.80328562  -0.35638621   0.94641382    34490.143 
 9470000   0.80198606  -0.29558762   0.95658087    34490.143 
 9480000   0.79232041   -0.3663561   0.93432814    34490.143 
 9490000   0.80273338   -0.2808449    0.9602754    34490.143 
 9500000   0.80119861  -0.29349686    0.9531043    34490.143 
 9510000   0.79627815  -0.27471135   0.93830005    34490.143 
 9520000   0.80072488  -0.31104286   0.94485927    34490.143 
 9530000   0.79696118   -0.3117679   0.94215855    34490.143 
 9540000   0.79904499  -0.30103052   0.94705612    34490.143 
 9550000   0.79737095  -0.31764079   0.93576789    34490.143 
 9560000   0.80037886  -0.34424062   0.94492633    34490.143 
 9570000   0.79701726  -0.25539632   0.94390308    34490.143 
 9580000   0.79291194  -0.28981745   0.94785094    34490.143 
 9590000   0.80651444  -0.32517381   0.95214954    34490.143 
 9600000   0.80249897  -0.30661163   0.95578877    34490.143 
 9610000   0.80490419  -0.32826187   0.96294548    34490.143 
 9620000   0.79670085  -0.27513621   0.94898552    34490.143 
 9630000     0.801744   -0.3156852   0.94186405    34490.143 
 9640000   0.80260034  -0.32629151   0.94504248    34490.143 
 9650000   0.80367718  -0.37984878   0.94678315    34490.143 
 9660000   0.79717426   -0.3491089   0.94530267    34490.143 
 9670000   0.80233364  -0.25949299   0.95459313    34490.143 
 9680000   0.79680146  -0.30683424   0.94419755    34490.143 
 9690000    0.8005961  -0.33595996   0.95079693    34490.143 
 9700000   0.80586152  -0.27133927   0.95309519    34490.143 
 9710000   0.79425983   -0.2440881   0.94165088    34490.143 
 9720000   0.80321388  -0.23324082   0.96309804    34490.143 
 9730000   0.80319055  -0.32852234   0.95479419    34490.143 
 9740000   0.79791247   -0.2900764   0.94992479    34490.143 
 9750000   0.80057502  -0.35600942   0.94929664    34490.143 
 9760000   0.79240647  -0.31473917   0.93245877    34490.143 
 9770000    0.7936936  -0.34187685   0.93384237    34490.143 
 9780000   0.80033961  -0.23187916   0.95101939    34490.143 
 9790000   0.80932356  -0.28552965   0.96012073    34490.143 
 9800000   0.79885917  -0.28149595   0.94225155    34490.143 
 9810000   0.79744478  -0.26187457   0.94676433    34490.143 
 9820000   0.79703273  -0.30209908   0.94352054    34490.143 
 9830000   0.79525252  -0.30951567     0.933797    34490.143 
 9840000   0.80438903  -0.20192576   0.96032898    34490.143 
 9850000   0.79855733  -0.37405388   0.93415465    34490.143 
 9860000   0.79945129  -0.25917046   0.94421195    34490.143 
 9870000   0.80652197  -0.32701471   0.96055213    34490.143 
 9880000   0.80164575  -0.30200632   0.95650689    34490.143 
 9890000   0.79809821  -0.37799692   0.94338788    34490.143 
 9900000   0.79616424  -0.32117206   0.94022837    34490.143 
 9910000   0.80700736  -0.25907634   0.95941628    34490.143 
 9920000   0.80121343  -0.32826605   0.94815725    34490.143 
 9930000   0.80246336   -0.2506581   0.95624216    34490.143 
 9940000   0.79588767   -0.2773082   0.93963577    34490.143 
 9950000   0.80261133   -0.3241333   0.95639362    34490.143 
 9960000   0.80279893  -0.34222137   0.95164743    34490.143 
 9970000   0.80681255  -0.30308951   0.95970556    34490.143 
 9980000   0.79642401  -0.38958008   0.93143299    34490.143 
 9990000   0.79628975  -0.46843176   0.92824918    34490.143 
10000000   0.80072476  -0.30527048   0.93794582    34490.143 
10010000   0.79358713  -0.35877761   0.93671067    34490.143 
10020000    0.7978104   -0.2505135    0.9473417    34490.143 
10030000   0.80324341  -0.32820345   0.95320631    34490.143 
10040000    0.8100725  -0.29057257   0.95521242    34490.143 
10050000   0.80392783  -0.28670451   0.95663365    34490.143 
10060000   0.80541414  -0.31938238   0.95508213    34490.143 
10070000   0.80523815  -0.33124483   0.96018372    34490.143 
10080000   0.79903609  -0.35249487   0.95047213    34490.143 
10090000   0.80542741  -0.33900243   0.94885839    34490.143 
10100000     0.799955  -0.35474718   0.95458588    34490.143 
10110000   0.79801562  -0.33502437   0.93620129    34490.143 
10120000   0.79925258  -0.23635245   0.94745253    34490.143 
10130000   0.80388207  -0.35682737   0.95005021    34490.143 
10140000   0.79222019  -0.30580372   0.93405945    34490.143 
10150000   0.80216579  -0.37436707   0.94153118    34490.143 
10160000   0.79805979  -0.29221251   0.94574847    34490.143 
10170000   0.80335855  -0.33870386   0.94894429    34490.143 
10180000   0.80139263  -0.28798962   0.94131528    34490.143 
10190000   0.80324449  -0.28567586   0.95548765    34490.143 
10200000   0.79555617  -0.30172559   0.93789951    34490.143 
10210000   0.80080557  -0.34364436   0.94702932    34490.143 
10220000   0.79457395  -0.31921392   0.94306556    34490.143 
10230000   0.80748494  -0.25286234   0.96550891    34490.143 
10240000   0.79956033  -0.31954629   0.94506844    34490.143 
10250000   0.79794098  -0.35744109   0.94157192    34490.143 
10260000   0.80496474  -0.32303395   0.96196747    34490.143 
10270000     0.796078  -0.35253623   0.93734564    34490.143 
10280000   0.80479714  -0.30080325   0.95166437    34490.143 
10290000    0.7990672  -0.29835032   0.94103333    34490.143 
10300000   0.80202803  -0.31390419   0.94124877    34490.143 
10310000   0.79668725  -0.39306256   0.93871618    34490.143 
10320000   0.79106832  -0.29953124   0.94525463    34490.143 
10330000   0.79895379  -0.30588366   0.94122143    34490.143 
10340000   0.80265709  -0.33812798   0.95449682    34490.143 
10350000   0.79907184  -0.23071096   0.94441944    34490.143 
10360000   0.79548266  -0.23750429   0.94056212    34490.143 
10370000   0.80786029  -0.32170408   0.95025852    34490.143 
10380000   0.80586235  -0.31910005   0.95646894    34490.143 
10390000   0.79802164  -0.34973716   0.93918357    34490.143 
10400000   0.79721784  -0.33597111   0.93824546    34490.143 
10410000   0.79889826  -0.32804724   0.94371994    34490.143 
10420000   0.79740828  -0.31076645   0.94304278    34490.143 
10430000   0.80682422   -0.2395974    0.9519637    34490.143 
10440000   0.79465776  -0.32452702   0.94034361    34490.143 
10450000   0.79280595  -0.24681949   0.93642158    34490.143 
10460000   0.79678061  -0.31342636   0.94017278    34490.143 
10470000   0.79607013  -0.28025161   0.94906108    34490.143 
10480000   0.80281116  -0.19582359   0.95598968    34490.143 
10490000   0.79673127  -0.25801293   0.94982484    34490.143 
10500000     0.803055   -0.3169362   0.94963042    34490.143 
10510000   0.79823377    -0.288221    0.9447288    34490.143 
10520000   0.80602985  -0.23610585   0.95579892    34490.143 
10530000   0.79877317  -0.32507137   0.94324876    34490.143 
10540000   0.79892834  -0.35662335   0.95264111    34490.143 
10550000   0.80028073   -0.4054114   0.94670723    34490.143 
10560000   0.79735329  -0.27109546   0.93389528    34490.143 
10570000    0.8013232    -0.411125   0.94894387    34490.143 
10580000   0.80060816  -0.37542887    0.9342921    34490.143 
10590000   0.80067079  -0.36174477    0.9441159    34490.143 
10600000   0.79944964  -0.29309873   0.95140049    34490.143 
10610000   0.79124498  -0.31824105    0.9302156    34490.143 
10620000   0.79467539  -0.28055115   0.93594558    34490.143 
10630000   0.79882238  -0.33288581   0.93604019    34490.143 
10640000   0.79831572   -0.3355979   0.94961833    34490.143 
10650000   0.79892018  -0.35010521   0.94536776    34490.143 
10660000   0.79503126  -0.25403847   0.93992634    34490.143 
10670000   0.80257799  -0.34072354   0.93821225    34490.143 
10680000   0.79732436  -0.29863862   0.93728772    34490.143 
10690000   0.80221372  -0.33351726   0.94469125    34490.143 
10700000   0.80304053  -0.35519625   0.95535691    34490.143 
10710000   0.79735886  -0.37843073   0.93345089    34490.143 
10720000   0.79779916  -0.21573086   0.94570224    34490.143 
10730000   0.80425544  -0.30449723   0.95547337    34490.143 
10740000   0.79990199  -0.38544361   0.94072384    34490.143 
10750000   0.80191296  -0.30750133   0.94502333    34490.143 
10760000   0.79918724  -0.23090134   0.94406651    34490.143 
10770000   0.80310425   -0.3010137    0.9460498    34490.143 
10780000   0.79366752  -0.30807579   0.93540012    34490.143 
10790000   0.80038731  -0.29622581   0.94073852    34490.143 
10800000   0.79192423  -0.31415524   0.94447933    34490.143 
10810000   0.79213708  -0.35004829   0.92964157    34490.143 
10820000   0.79677208  -0.31176399    0.9462488    34490.143 
10830000   0.79855798  -0.27961076   0.94108108    34490.143 
10840000   0.79841636  -0.22600796   0.95006044    34490.143 
10850000    0.8062399  -0.28348141   0.95452709    34490.143 
10860000    0.8057515  -0.26082886    0.9496992    34490.143 
10870000   0.79675799  -0.33828913    0.9456476    34490.143 
10880000   0.80364841  -0.29329675   0.95093214    34490.143 
10890000   0.80201396  -0.37363414   0.94190391    34490.143 
10900000   0.80503136   -0.3250267   0.95301247    34490.143 
10910000   0.80065547  -0.20130905   0.95957659    34490.143 
10920000   0.79724329  -0.28918914   0.94538063    34490.143 
10930000   0.79934749  -0.28763202   0.94849546    34490.143 
10940000   0.79762057  -0.38058574   0.93304454    34490.143 
10950000   0.79557679  -0.33834716   0.93313534    34490.143 
10960000    0.7989556  -0.26438534   0.94136411    34490.143 
10970000   0.80486015  -0.32775295   0.94561515    34490.143 
10980000   0.80245881  -0.27070559   0.94840687    34490.143 
10990000   0.80141985  -0.33016156   0.94298411    34490.143 
11000000   0.79657034  -0.31459363   0.93808138    34490.143 
11010000   0.80172847   -0.3011297   0.94407326    34490.143 
11020000    0.7955118  -0.26261949    0.9366007    34490.143 
11030000   0.80052547  -0.32406269   0.95277796    34490.143 
11040000   0.80389295  -0.35981587   0.95037425    34490.143 
11050000   0.80212805  -0.33753973   0.95435185    34490.143 
11060000   0.79343576  -0.34834982   0.93627865    34490.143 
11070000   0.80054683  -0.23155056   0.95701084    34490.143 
11080000   0.79816639  -0.29117835   0.94181604    34490.143 
11090000    0.8027821  -0.28284027   0.94244024    34490.143 
11100000   0.80086656  -0.34759144   0.94714803    34490.143 
11110000   0.79577534  -0.37844846   0.94810703    34490.143 
11120000   0.79734135  -0.37142847   0.93444052    34490.143 
11130000   0.80038141  -0.30592472   0.94834037    34490.143 
11140000   0.80329752  -0.27707928    0.9503585    34490.143 
11150000   0.79521236  -0.28960421   0.94442878    34490.143 
11160000   0.80248017  -0.32690999   0.94573676    34490.143 
11170000     0.805981  -0.28715474    0.9609438    34490.143 
11180000   0.79840903  -0.33234687   0.93791705    34490.143 
11190000   0.80069651  -0.32467941   0.94173933    34490.143 
11200000   0.80063643  -0.30551514   0.94656539    34490.143 
11210000   0.80280821  -0.33866624   0.94898774    34490.143 
11220000   0.80334554  -0.33950701   0.95597323    34490.143 
11230000    0.7948523  -0.36104512   0.93316131    34490.143 
11240000   0.80363284  -0.32935355   0.95443387    34490.143 
11250000   0.80007037   -0.3595949   0.94154941    34490.143 
11260000   0.80112139  -0.25154187   0.95033566    34490.143 
11270000   0.80236855  -0.30280049   0.95055339    34490.143 
11280000   0.80035871   -0.2732956   0.93908839    34490.143 
11290000   0.79601679  -0.37934218   0.93558003    34490.143 
11300000   0.80585306  -0.27406328   0.96099679    34490.143 
11310000   0.80187836   -0.3479675   0.93459696    34490.143 
11320000   0.80182323  -0.31287051   0.95652455    34490.143 
11330000   0.80767734  -0.38642327   0.94573852    34490.143 
11340000   0.80059556   -0.2716602   0.94467546    34490.143 
11350000   0.80271819  -0.35635531   0.95462459    34490.143 
11360000   0.79786095  -0.31293023    0.9327063    34490.143 
11370000   0.79500783  -0.29876078   0.93977298    34490.143 
11380000   0.79554368  -0.29958091    0.9367234    34490.143 
11390000   0.79271994  -0.39351499   0.93049496    34490.143 
11400000   0.79709773  -0.37034642   0.93928445    34490.143 
11410000   0.79694093  -0.34278673   0.93537988    34490.143 
11420000   0.80024937  -0.27960603   0.94673628    34490.143 
11430000   0.79051037  -0.34918921   0.93157039    34490.143 
11440000   0.80176451  -0.29716407   0.95467081    34490.143 
11450000   0.79797997  -0.33451178   0.93757071    34490.143 
11460000   0.79373673  -0.23345773    0.9296842    34490.143 
11470000   0.80428112  -0.27282758   0.95420272    34490.143 
11480000   0.80186377  -0.27934965   0.94241575    34490.143 
11490000   0.79755768   -0.3091559   0.94648361    34490.143 
11500000   0.79999897  -0.32101203   0.94092954    34490.143 
11510000   0.80667871  -0.32955475   0.95533141    34490.143 
11520000   0.79961473  -0.26966039   0.94385353    34490.143 
11530000   0.80315528   -0.2793899    0.9547221    34490.143 
11540000   0.80188622  -0.33867533   0.94864838    34490.143 
11550000   0.79504198  -0.32214064   0.93962327    34490.143 
11560000   0.80316025   -0.2861629    0.9420736    34490.143 
11570000   0.79880299  -0.29599566   0.94426539    34490.143 
11580000   0.79189531  -0.32170527   0.93929475    34490.143 
11590000   0.79905707  -0.28284072   0.93957658    34490.143 
11600000    0.7974052   -0.2247977    0.9490605    34490.143 
11610000   0.79851731  -0.27798835     0.943554    34490.143 
11620000   0.80012685  -0.34982555   0.93996004    34490.143 
11630000   0.79833094  -0.32706792   0.93390435    34490.143 
11640000   0.80022557  -0.28559064    0.9462584    34490.143 
11650000   0.79945547   -0.2797762   0.93784068    34490.143 
11660000   0.79954186  -0.31274195    0.9379156    34490.143 
11670000   0.80354742   -0.3372477    0.9461847    34490.143 
11680000   0.79551208  -0.29156574     0.947116    34490.143 
11690000   0.79797703  -0.32066576   0.95092678    34490.143 
11700000   0.80343056  -0.24220183   0.95404638    34490.143 
11710000   0.79310236   -0.2864035   0.93367252    34490.143 
11720000    0.8000599  -0.33618812   0.95255667    34490.143 
11730000   0.80194136  -0.29715695   0.94250094    34490.143 
11740000   0.79106681  -0.36134541   0.92784093    34490.143 
11750000   0.80654866  -0.32553426   0.95254864    34490.143 
11760000   0.80389839  -0.34235641   0.95215628    34490.143 
11770000   0.79837405  -0.26916989   0.94104413    34490.143 
11780000   0.79849412  -0.30411779     0.945223    34490.143 
11790000     0.800579  -0.25313817   0.94492255    34490.143 
11800000   0.79267386  -0.28452882   0.93704289    34490.143 
11810000   0.80118948  -0.30479697   0.94338748    34490.143 
11820000   0.80193655  -0.23663491   0.93952739    34490.143 
11830000   0.79717311   -0.3528279   0.93519518    34490.143 
11840000   0.80419814  -0.31141174   0.95141005    34490.143 
11850000    0.8085888   -0.2738682   0.96218988    34490.143 
11860000    0.7997044  -0.25649219   0.95135892    34490.143 
11870000   0.80348416  -0.30459444   0.95604437    34490.143 
11880000   0.80595735  -0.35579258   0.94340799    34490.143 
11890000    0.7957966  -0.32396572   0.93822501    34490.143 
11900000   0.79983104  -0.32227914   0.94483149    34490.143 
11910000   0.80505878  -0.35703491   0.94448286    34490.143 
11920000   0.80670318  -0.34098915   0.95374907    34490.143 
11930000   0.79914238  -0.30594888   0.94311512    34490.143 
11940000    0.7990449  -0.30457875   0.93672417    34490.143 
11950000   0.79959708  -0.30601252   0.94421649    34490.143 
11960000   0.80391842  -0.28604448   0.95044728    34490.143 
11970000   0.79059478  -0.31120628   0.93259974    34490.143 
11980000   0.79981062  -0.24198012   0.94947026    34490.143 
11990000   0.79445415  -0.32735928   0.93572058    34490.143 
12000000   0.80300827  -0.30914677   0.94201701    34490.143 
Loop time of 54827 on 216 procs for 5000000 steps with 27950 atoms

Performance: 39396.665 tau/day, 91.196 timesteps/s
99.9% CPU use with 216 MPI tasks x 1 OpenMP threads

MPI task timing breakdown:
Section |  min time  |  avg time  |  max time  |%varavg| %total
---------------------------------------------------------------
Pair    | 846.27     | 975.77     | 1182.5     | 204.2 |  1.78
Bond    | 8.6488     | 10.245     | 12.78      |  22.9 |  0.02
Kspace  | 48814      | 49693      | 50174      | 118.6 | 90.64
Neigh   | 540.89     | 573.99     | 607.29     |  56.4 |  1.05
Comm    | 1276.9     | 1652.3     | 2291.8     | 526.1 |  3.01
Output  | 3.1437     | 3.1451     | 3.1942     |   0.2 |  0.01
Modify  | 1393.3     | 1602       | 1797.3     | 247.5 |  2.92
Other   |            | 316.8      |            |       |  0.58

Nlocal:    129.398 ave 187 max 113 min
Histogram: 40 76 63 15 5 6 2 6 1 2
Nghost:    956.287 ave 1093 max 876 min
Histogram: 6 27 55 41 40 24 14 7 1 1
Neighs:    4755.83 ave 9098 max 3752 min
Histogram: 67 84 36 8 6 4 6 2 1 2

Total # of neighbors = 1027259
Ave neighs/atom = 36.7535
Ave special neighs/atom = 0.62254
Neighbor list builds = 672125
Dangerous builds = 0
System init for write_restart ...
PPPM initialization ...
  using 12-bit tables for long-range coulomb (src/kspace.cpp:332)
  G vector (1/distance) = 1.20588
  grid = 108 108 108
  stencil order = 5
  estimated absolute RMS force accuracy = 0.000129295
  estimated relative force accuracy = 0.000129295
  using double precision FFTW3
  3d grid and FFT values/proc = 12167 5832
WARNING: Neighbor exclusions used with KSpace solver may give inconsistent Coulombic energies (src/neighbor.cpp:486)
Neighbor list info ...
  update every 1 steps, delay 0 steps, check yes
  max neighbors/atom: 2000, page size: 100000
  master list distance cutoff = 2.8
  ghost atom cutoff = 2.8
  binsize = 1.4, bins = 24 24 24
  2 neighbor lists, perpetual/occasional/extra = 2 0 0
  (1) pair lj/cut, perpetual
      attributes: half, newton on
      pair build: half/bin/newton
      stencil: half/bin/3d/newton
      bin: standard
  (2) pair coul/long, perpetual, skip from (1)
      attributes: half, newton on
      pair build: skip
      stencil: none
      bin: none
Total wall time: 16:35:57
