ITEM: TIMESTEP
0
ITEM: NUMBER OF ATOMS
475
ITEM: BOX BOUNDS pp pp pp
7.1354277009520928e-01 3.3076457229894366e+01
7.1354277009520928e-01 3.3076457229894366e+01
7.1354277009520928e-01 3.3076457229894366e+01
ITEM: ATOMS id mol type x y z 
22209 0 5 6.09056 1.56853 1.66634 
8307 0 5 1.1085 4.07863 0.73344 
15226 0 5 3.64718 1.01838 3.92106 
23965 0 5 3.86707 5.01284 7.81758 
12383 0 5 5.70306 2.97569 11.6238 
8720 0 5 4.91115 1.49856 17.2325 
24363 0 5 1.57662 1.13645 25.7641 
6460 0 5 1.59037 1.87341 28.4279 
15662 0 5 2.04538 4.1954 27.8104 
6368 0 5 4.68061 4.19067 31.916 
26060 0 5 5.99214 7.29889 1.73773 
21602 0 5 2.3136 6.6484 16.8567 
1164 0 5 1.80932 7.88305 17.6101 
22893 0 5 3.74976 10.0667 17.8967 
7170 0 5 3.92559 9.00793 20.4635 
9988 0 5 2.76568 7.86528 22.0826 
1788 0 5 3.69427 8.86416 23.654 
25277 0 5 2.0184 6.41955 30.8047 
9298 0 5 5.07213 11.2683 31.2072 
4532 0 5 3.73209 8.18269 32.1538 
2935 0 5 3.84337 15.1452 0.799851 
23930 0 5 3.34033 16.7188 3.70589 
8383 0 5 2.98389 13.0983 8.02863 
11862 0 5 3.68348 13.4453 9.79351 
1380 0 5 2.53967 15.4416 14.1932 
13277 0 5 2.73368 16.8132 15.1087 
4649 0 5 2.57562 11.5997 18.9403 
24198 0 5 4.05857 12.5569 19.2365 
16548 0 5 5.40379 13.1815 21.4922 
10805 0 5 3.73276 14.1183 21.9449 
14409 0 5 1.87406 15.1731 20.7893 
14566 0 5 4.92036 15.4134 24.9875 
13321 0 5 4.62833 16.46 25.3476 
23964 0 5 2.0024 11.6044 27.2594 
13185 0 5 3.889 11.5565 26.1309 
26096 0 5 1.42349 14.5368 27.0353 
4028 0 5 0.88331 14.9543 25.9059 
24434 0 5 1.91552 16.5693 25.9864 
14579 0 5 2.96818 13.5324 31.0864 
10492 0 5 3.1153 14.7133 32.7019 
9290 0 5 3.132 15.7324 31.9981 
24492 0 5 0.911813 18.7127 2.68946 
6814 0 5 0.738804 19.9267 3.49117 
25957 0 5 2.11384 21.7801 3.9707 
2718 0 5 2.71287 21.0603 4.92227 
18474 0 5 5.54612 17.076 13.0849 
23232 0 5 3.31798 20.312 12.831 
18111 0 5 5.48452 18.7956 16.4623 
12034 0 5 4.0131 21.9671 15.5206 
20728 0 5 5.10844 20.5312 19.122 
4420 0 5 2.60519 17.4053 20.8763 
14514 0 5 4.52647 19.7047 22.5633 
3938 0 5 1.2675 17.484 26.334 
23003 0 5 1.5807 19.0545 30.9826 
4446 0 5 3.5645 19.576 31.5802 
14585 0 5 5.94909 23.1367 1.12282 
12860 0 5 1.44957 22.7673 4.04676 
20140 0 5 5.83399 23.4735 2.65096 
24591 0 5 2.29064 26.4843 5.87898 
23446 0 5 4.82531 25.1048 7.46975 
24573 0 5 3.45394 25.3061 23.7157 
11294 0 5 5.10333 25.3953 22.4353 
15007 0 5 2.06999 25.6202 24.3868 
24999 0 5 3.63359 25.589 24.7003 
10266 0 5 4.76913 23.2265 27.3 
11787 0 5 5.93023 24.2561 27.2402 
12238 0 5 4.75516 24.2974 27.5559 
2232 0 5 0.737603 26.5559 26.4589 
32 0 5 3.03845 22.7486 32.8683 
6909 0 5 3.76441 30.6387 2.70582 
13854 0 5 4.29611 29.0684 5.12044 
12439 0 5 2.6808 31.3139 5.84301 
10968 0 5 4.84434 28.3213 7.63357 
19858 0 5 2.40683 32.7389 7.39332 
1168 0 5 4.08897 28.3894 12.5081 
9691 0 5 2.15504 31.4374 13.4714 
15013 0 5 3.62223 31.5539 17.5647 
9887 0 5 1.3115 30.5295 18.8154 
12139 0 5 4.55851 31.5179 18.793 
23025 0 5 5.87546 28.3382 24.9882 
14795 0 5 0.945829 28.7758 26.8899 
22467 0 5 4.43653 31.4797 28.2543 
9087 0 5 4.27725 30.5353 31.0491 
5334 0 5 5.45075 32.9674 32.1196 
24297 0 5 7.93608 5.44241 1.28384 
13288 0 5 6.15995 3.87707 5.83108 
21015 0 5 9.62052 4.75055 12.1751 
15445 0 5 11.4721 3.13819 17.6863 
11878 0 5 7.48904 5.12146 28.0556 
23773 0 5 10.9642 7.58567 3.12291 
3275 0 5 9.03819 9.63192 4.84158 
13263 0 5 10.2529 10.8202 6.07959 
6427 0 5 8.37797 9.72734 11.352 
24314 0 5 7.34899 11.0711 13.8411 
13293 0 5 11.1011 9.26824 15.5316 
11893 0 5 7.81723 11.0393 29.3067 
23189 0 5 10.4154 9.67045 29.8277 
13558 0 5 11.2237 12.1404 1.48592 
15139 0 5 8.54661 13.6668 0.906819 
6678 0 5 6.38339 11.9844 2.60162 
3778 0 5 11.1429 14.9591 8.60383 
18999 0 5 6.44525 15.5525 11.4227 
20317 0 5 7.0727 12.8133 12.0748 
22213 0 5 6.51045 15.7796 16.7853 
23170 0 5 9.78241 14.2798 22.0255 
16616 0 5 8.753 14.3714 27.0648 
9128 0 5 8.38794 12.5781 28.9805 
19928 0 5 11.3567 13.1962 28.9306 
19255 0 5 8.63318 14.6915 29.0591 
6459 0 5 6.90914 19.9558 4.03441 
11084 0 5 10.0626 18.2197 8.08593 
4439 0 5 6.3132 19.1442 7.9355 
23380 0 5 9.50226 20.8013 9.72643 
20281 0 5 9.87069 20.9962 12.6659 
975 0 5 8.33987 19.1342 15.6135 
1282 0 5 9.45687 18.1522 21.3917 
10540 0 5 7.26701 21.0376 22.1923 
21668 0 5 8.96306 19.1193 24.1333 
3613 0 5 9.56002 21.1628 32.3206 
17384 0 5 10.5092 27.1039 2.07824 
826 0 5 10.7372 25.279 5.39555 
17480 0 5 9.88261 25.4876 6.44521 
16009 0 5 10.3533 25.8155 16.4398 
9328 0 5 6.78152 25.0884 18.2777 
26063 0 5 6.39783 23.3232 19.7418 
21648 0 5 8.09575 24.7504 18.9039 
10487 0 5 9.75623 25.8218 19.9813 
8422 0 5 9.78349 25.2365 22.7928 
19401 0 5 7.55269 22.9172 28.8465 
1523 0 5 6.60572 26.9487 29.5923 
23722 0 5 6.48526 30.188 1.67418 
16930 0 5 9.01215 27.6908 10.4644 
22503 0 5 9.73625 31.8999 11.8128 
13640 0 5 6.33184 32.4619 14.7764 
3930 0 5 8.13981 27.7742 15.7296 
20578 0 5 6.63097 29.8823 21.769 
190 0 5 11.4614 32.3468 26.2764 
5241 0 5 11.3478 29.9286 27.9471 
24665 0 5 13.1749 3.29993 2.31895 
19084 0 5 13.6984 5.35352 1.68014 
16498 0 5 14.6018 5.89947 2.67759 
13546 0 5 13.2852 1.61649 6.05163 
18116 0 5 12.1069 3.80438 5.29177 
5002 0 5 16.6699 2.52063 9.93759 
981 0 5 14.4067 1.3105 12.7946 
22322 0 5 11.889 1.77769 13.3073 
1462 0 5 16.5878 0.934782 15.805 
3187 0 5 16.1475 4.01602 15.6383 
21981 0 5 15.2178 4.37878 20.4687 
575 0 5 12.1049 2.90096 22.1212 
7797 0 5 13.963 2.12094 23.5119 
5550 0 5 14.7753 5.13034 23.5446 
4686 0 5 14.0805 2.68023 27.7328 
19021 0 5 11.6806 7.7249 1.36637 
16693 0 5 15.9763 6.84445 7.21361 
9838 0 5 11.5305 9.85816 6.41343 
23769 0 5 12.5573 11.308 9.19042 
18240 0 5 12.3281 6.65461 10.1611 
6795 0 5 11.5961 8.04329 10.2038 
12161 0 5 16.2937 8.30693 16.6567 
7018 0 5 13.8904 8.14388 20.3926 
14478 0 5 13.2255 8.2518 23.3526 
7582 0 5 12.65 7.39374 25.0552 
5510 0 5 15.2608 7.12583 24.3689 
13674 0 5 13.156 8.09084 28.2152 
13302 0 5 16.7742 8.56761 28.4357 
12125 0 5 12.574 7.18261 29.7363 
20765 0 5 14.9389 6.97775 30.0836 
4432 0 5 13.8128 8.92078 32.3094 
26698 0 5 15.8533 9.11798 32.7726 
10698 0 5 11.8725 10.7577 32.8863 
24311 0 5 16.1877 16.8841 4.00278 
6429 0 5 15.4214 14.5945 6.70154 
5734 0 5 12.5085 12.2135 8.66075 
2294 0 5 15.8488 14.9735 9.55038 
2790 0 5 16.0379 12.5305 12.9012 
3611 0 5 16.3117 14.3797 15.2601 
18053 0 5 16.7651 14.5766 18.5922 
9697 0 5 15.4936 16.4749 23.8588 
11781 0 5 12.9408 15.2738 27.2106 
9243 0 5 16.1826 15.8658 28.4873 
6698 0 5 15.3279 14.6781 30.4397 
11115 0 5 11.8443 13.9098 31.9283 
9050 0 5 14.8244 13.6418 32.8904 
4792 0 5 12.2946 17.871 0.835326 
16599 0 5 11.9934 18.2648 5.56614 
15963 0 5 15.6318 17.4308 6.00619 
6184 0 5 16.7494 19.0784 12.0569 
17502 0 5 13.5234 20.6543 12.625 
14107 0 5 15.2432 21.7668 12.7155 
26737 0 5 11.6154 20.9641 15.6842 
24418 0 5 13.2996 17.8387 18.1908 
9202 0 5 15.0346 21.8376 17.2966 
13964 0 5 16.8589 20.6409 17.8267 
14037 0 5 16.7226 18.0014 19.7194 
9037 0 5 13.3728 21.8529 21.6508 
7968 0 5 15.8792 18.19 22.9721 
24506 0 5 14.2901 20.7426 24.9728 
23789 0 5 13.9377 21.8168 25.2943 
16719 0 5 15.6537 17.7705 26.7335 
12950 0 5 15.2733 19.0451 27.3016 
8925 0 5 12.2146 22.0605 28.8554 
23763 0 5 11.8414 16.9333 30.7923 
23938 0 5 12.4638 19.8543 29.4969 
16206 0 5 15.6454 24.1305 2.34743 
9713 0 5 12.4985 26.5234 2.39926 
13966 0 5 11.9535 24.8074 3.8105 
20455 0 5 15.5412 26.6028 3.48925 
4785 0 5 14.8466 24.0446 5.67015 
7013 0 5 16.5392 26.159 15.7571 
16148 0 5 15.4938 23.6704 18.0476 
1002 0 5 14.6603 27.3117 23.7297 
22911 0 5 12.8845 26.6306 25.6289 
26058 0 5 12.7338 25.7497 26.1921 
13129 0 5 13.3455 22.3474 28.4531 
6281 0 5 14.6932 27.2492 27.8001 
15579 0 5 15.2447 22.7874 30.1699 
2581 0 5 16.8857 28.3374 3.54268 
20044 0 5 15.1127 29.4127 7.63197 
8467 0 5 11.739 32.7207 12.3509 
14451 0 5 15.3957 28.9539 23.0464 
23159 0 5 13.2291 31.255 22.8254 
18595 0 5 12.6794 31.9751 27.3414 
19263 0 5 12.1794 31.1029 29.463 
20169 0 5 15.5902 30.9951 28.8187 
18983 0 5 13.5603 32.6064 31.0678 
16272 0 5 14.6681 33.0147 32.7988 
16074 0 5 20.5134 2.15035 4.52465 
12939 0 5 19.5779 4.5603 6.82777 
19574 0 5 18.852 1.78967 10.6123 
16385 0 5 18.5364 2.99082 10.6512 
21091 0 5 20.1155 3.89648 10.026 
7807 0 5 17.9466 2.34541 12.0132 
2304 0 5 20.1447 4.39004 24.8315 
3418 0 5 22.0179 3.7876 27.9551 
18233 0 5 21.6764 0.814115 32.666 
24345 0 5 20.732 7.64625 7.51016 
25408 0 5 17.1243 8.94741 6.36316 
14638 0 5 17.6877 6.13987 8.47568 
9162 0 5 21.1291 7.82173 13.0896 
22613 0 5 17.6718 10.9896 13.7509 
16281 0 5 22.0531 9.80345 13.4269 
8928 0 5 21.4492 10.4474 14.2572 
22140 0 5 18.2923 8.43855 16.6597 
15647 0 5 19.5017 11.4066 18.3226 
6655 0 5 20.7918 9.63843 19.752 
16595 0 5 20.1252 9.95605 18.7408 
9021 0 5 20.3829 8.88973 21.3375 
25908 0 5 22.248 11.1769 21.464 
6565 0 5 21.1094 9.67168 24.7217 
12568 0 5 22.1501 8.71989 28.6446 
5559 0 5 18.7157 11.2378 29.2956 
1388 0 5 19.2973 7.81152 30.819 
15083 0 5 17.0939 9.15206 31.6888 
6370 0 5 21.5899 11.8822 1.65818 
19291 0 5 18.7907 16.0865 0.758773 
3087 0 5 18.2836 16.2532 3.07952 
9723 0 5 17.4513 14.4751 5.7458 
21070 0 5 19.6015 16.688 5.54212 
17380 0 5 21.835 16.7553 7.64108 
19340 0 5 19.0701 15.7114 10.939 
5544 0 5 20.0649 14.7878 12.4393 
15953 0 5 21.0802 12.7735 14.6163 
25747 0 5 18.0553 14.4815 13.7894 
20801 0 5 20.3845 15.2983 15.8564 
19578 0 5 22.0716 14.7641 17.5005 
25834 0 5 21.4135 15.8293 17.3148 
18427 0 5 18.0411 13.3497 19.7702 
7774 0 5 20.5266 14.0117 19.4891 
17473 0 5 19.9393 16.225 20.7211 
24563 0 5 21.7052 16.1528 22.1193 
5785 0 5 17.4151 14.6813 27.6059 
10274 0 5 19.7046 15.8144 26.6437 
25409 0 5 20.3457 12.7468 28.7685 
23989 0 5 19.7154 16.067 30.1088 
9408 0 5 20.4661 18.4648 1.7437 
11722 0 5 17.7987 19.6073 2.95393 
2776 0 5 17.949 19.8321 5.84848 
19062 0 5 18.3598 17.543 11.5861 
18001 0 5 19.5962 21.0137 15.8321 
4911 0 5 17.1416 19.5666 17.1721 
9396 0 5 19.8884 17.3383 21.5938 
17346 0 5 19.489 17.0773 23.4938 
13469 0 5 20.3122 22.0193 23.7988 
18664 0 5 17.02 19.7299 25.8153 
5742 0 5 17.9532 22.1187 25.1962 
8881 0 5 21.6692 21.9941 25.369 
9757 0 5 21.3803 20.618 24.4427 
3492 0 5 16.9248 20.5852 27.9446 
23338 0 5 20.7533 18.8588 30.1208 
5875 0 5 17.9868 21.1478 32.5604 
22212 0 5 21.3984 22.0296 32.2118 
8139 0 5 18.4934 24.6738 3.85979 
6358 0 5 19.1447 24.0389 6.22495 
20242 0 5 22.0401 22.355 13.0606 
16695 0 5 19.5943 27.4953 12.2657 
652 0 5 21.6067 22.3415 15.6398 
3666 0 5 19.8001 27.573 15.492 
11622 0 5 21.7466 24.1675 17.6885 
10488 0 5 17.4717 23.7595 18.9562 
23948 0 5 21.0697 22.619 27.2644 
23620 0 5 22.0056 26.9395 26.6828 
24307 0 5 21.1001 24.7279 28.8885 
2923 0 5 16.961 23.9869 29.6223 
11602 0 5 17.2043 23.0978 32.9292 
5507 0 5 17.5094 25.6682 32.3854 
22522 0 5 17.9917 28.4213 4.58951 
26540 0 5 20.2105 29.2286 5.26488 
17362 0 5 19.3294 32.6468 4.63052 
12486 0 5 20.4424 30.289 6.59077 
17629 0 5 19.7782 32.3917 7.19743 
3443 0 5 22.0631 27.9481 11.9927 
20476 0 5 17.279 28.1157 15.969 
15765 0 5 18.7798 28.3943 16.6343 
16038 0 5 18.2889 31.6422 17.938 
20751 0 5 17.7806 29.9796 19.386 
14393 0 5 17.7733 32.8405 20.6939 
18101 0 5 20.4596 29.5892 28.0966 
14516 0 5 21.8944 32.0264 28.3703 
12090 0 5 20.5402 30.5788 31.4968 
24579 0 5 27.2964 0.827883 3.0619 
17713 0 5 25.9665 6.04068 3.23488 
2494 0 5 27.6222 4.34441 7.58741 
21940 0 5 26.1633 5.67353 7.9903 
16748 0 5 22.9694 3.45562 12.6839 
10795 0 5 23.3981 3.53838 15.9195 
18380 0 5 25.1637 5.86216 17.5003 
14455 0 5 26.6106 4.45746 29.0969 
9878 0 5 26.882 2.70734 31.7012 
2243 0 5 23.4045 8.5972 1.63084 
2831 0 5 23.2832 11.3316 1.10987 
1501 0 5 25.7647 8.36518 3.73602 
20447 0 5 24.4318 7.40626 7.96132 
8142 0 5 25.9067 6.50265 9.59696 
16081 0 5 23.8805 8.48212 12.4561 
16347 0 5 26.1814 9.70106 15.5788 
10811 0 5 27.6561 8.1231 15.1628 
13196 0 5 23.5889 11.3712 16.7504 
23191 0 5 24.3555 8.32928 19.9259 
27000 0 5 27.6774 7.81427 21.101 
19335 0 5 25.2019 7.83021 24.1098 
6993 0 5 25.8928 9.16957 24.22 
21860 0 5 27.3887 9.37246 25.2348 
11521 0 5 25.3446 7.64394 26.5493 
17643 0 5 27.3467 10.9841 28.3953 
14398 0 5 24.2836 6.14393 31.2217 
16469 0 5 24.1576 6.68678 32.4597 
13568 0 5 23.1615 9.05672 31.768 
7622 0 5 23.2292 10.1882 32.095 
24589 0 5 25.6314 9.77543 32.0182 
11484 0 5 22.916 14.1414 2.02277 
16254 0 5 24.4718 13.4793 3.15722 
14374 0 5 26.7392 14.8295 4.13785 
22496 0 5 26.2104 13.7444 7.02902 
13452 0 5 25.089 12 8.886 
1586 0 5 23.2044 12.9042 11.1544 
11956 0 5 22.8799 11.55 13.1202 
1828 0 5 23.8109 14.901 14.7839 
4625 0 5 23.7924 15.5935 13.697 
589 0 5 22.563 16.6236 13.9814 
10303 0 5 22.9468 14.2211 16.8201 
25043 0 5 27.3319 15.0925 16.3694 
24666 0 5 26.7666 16.7057 15.8616 
2833 0 5 27.1433 13.9028 18.91 
12506 0 5 26.7023 14.8273 28.3945 
2799 0 5 26.0633 11.8286 29.9575 
16387 0 5 23.565 13.928 31.0607 
2159 0 5 25.2326 22.0776 3.54741 
18024 0 5 26.7639 20.0034 5.71099 
15873 0 5 26.0643 18.9726 27.0641 
14163 0 5 26.7207 18.7546 28.578 
17199 0 5 27.2143 21.3103 29.1579 
19973 0 5 27.574 23.3934 5.08161 
15310 0 5 24.6999 24.7398 9.03373 
9520 0 5 23.6658 25.9751 13.2023 
18469 0 5 25.4196 27.2109 13.4487 
6566 0 5 25.0974 23.5804 18.8191 
7211 0 5 23.4556 27.0924 19.1886 
8773 0 5 24.4492 26.5525 20.1516 
3729 0 5 22.8455 27.5637 21.7455 
10057 0 5 23.3798 23.7881 23.1403 
20318 0 5 22.4501 26.7249 22.3318 
24313 0 5 22.5883 24.5946 25.133 
17248 0 5 26.472 23.0144 26.2144 
353 0 5 26.4374 23.5146 28.4839 
15403 0 5 25.1501 23.6994 29.656 
14397 0 5 24.6596 32.9928 2.39964 
18247 0 5 25.7982 30.37 2.53137 
20269 0 5 27.0808 31.488 4.9106 
604 0 5 27.1518 28.4401 7.1496 
21446 0 5 24.0316 31.6643 6.11663 
11968 0 5 23.9857 28.793 8.41602 
8939 0 5 23.7742 32.4065 9.92992 
14793 0 5 23.7837 27.9811 12.3448 
11797 0 5 23.162 28.9233 17.8393 
4667 0 5 26.8898 32.7041 21.948 
10895 0 5 23.5823 29.2449 26.0628 
18211 0 5 22.3905 32.2495 27.2961 
291 0 5 23.3127 28.6453 29.2216 
15575 0 5 22.6001 29.1504 28.1452 
1613 0 5 25.9224 31.086 33.0292 
534 0 5 29.4941 2.27095 1.35615 
1785 0 5 30.9145 3.11482 1.28238 
21438 0 5 27.9637 1.70625 2.72868 
15719 0 5 29.0431 2.04088 6.09756 
13977 0 5 27.8298 4.97065 6.70106 
3530 0 5 32.0982 4.17369 7.97587 
376 0 5 30.8301 5.62293 11.3281 
19963 0 5 31.8628 3.36856 18.0428 
17247 0 5 29.9448 2.7142 20.2275 
23396 0 5 32.6276 3.78493 20.0136 
11628 0 5 31.4693 1.5473 21.595 
13662 0 5 31.0838 5.84837 20.9981 
5227 0 5 29.7319 4.10696 26.7909 
22051 0 5 29.9397 4.24763 28.158 
6356 0 5 27.8286 4.65382 28.5854 
5281 0 5 32.0387 2.36826 29.6493 
16776 0 5 30.5479 4.13438 30.0853 
18741 0 5 31.0749 2.38998 31.7753 
15723 0 5 28.2197 5.63656 32.7698 
24977 0 5 28.9273 6.75775 7.42107 
9744 0 5 32.4872 7.66736 7.68195 
19382 0 5 32.1134 8.96805 10.5388 
6022 0 5 29.4399 7.1008 11.5951 
16745 0 5 28.6934 7.53174 17.6553 
17453 0 5 31.6118 8.70126 18.3393 
3274 0 5 29.9795 10.401 18.2804 
15539 0 5 29.8545 6.24958 20.7854 
13137 0 5 28.4722 8.86363 21.0829 
14382 0 5 32.0149 8.62389 23.8594 
5555 0 5 29.3628 10.6232 25.4009 
15230 0 5 32.1992 8.89939 26.9512 
24478 0 5 27.9348 7.87205 27.8617 
21982 0 5 29.1109 10.7022 27.8767 
23624 0 5 30.4131 16.7518 6.88259 
25268 0 5 28.3857 14.5965 11.1016 
10844 0 5 29.8521 14.2658 12.1344 
23995 0 5 31.3161 12.6521 19.0652 
7153 0 5 32.933 16.6314 20.839 
25788 0 5 28.0541 13.4922 27.1591 
10234 0 5 30.1342 14.8707 26.5546 
3614 0 5 31.118 22.105 2.20431 
22809 0 5 32.6716 17.6984 5.87555 
24373 0 5 29.397 16.9965 7.48125 
21133 0 5 30.3164 20.0647 7.14341 
21620 0 5 31.3835 21.4819 7.05532 
12008 0 5 28.2809 19.4736 9.92773 
24969 0 5 30.6502 17.1655 11.9751 
3093 0 5 29.9426 19.5593 21.8991 
20296 0 5 29.5643 17.9349 26.0063 
24809 0 5 32.327 19.7391 27.2264 
2672 0 5 29.4882 19.3165 27.8263 
6682 0 5 31.6622 25.8356 1.36894 
877 0 5 32.6721 22.3176 3.90298 
2154 0 5 27.7333 26.38 15.1388 
15314 0 5 28.6568 24.3352 17.044 
22808 0 5 29.098 23.0999 18.8654 
15495 0 5 28.1349 26.3306 21.9902 
24335 0 5 29.7115 25.345 24.9897 
20717 0 5 32.8151 22.4664 28.8008 
19974 0 5 29.3441 30.5988 1.57888 
10477 0 5 31.1881 32.3375 0.773714 
23972 0 5 27.7975 31.1996 3.26419 
23674 0 5 28.5314 31.4629 9.3806 
18547 0 5 30.6463 31.9881 9.10744 
21369 0 5 32.7123 28.8724 11.0816 
3661 0 5 30.2028 29.466 14.1244 
11240 0 5 32.6216 28.9175 20.3158 
15655 0 5 31.6168 31.9112 19.1122 
25341 0 5 27.8366 31.999 20.625 
5948 0 5 27.8869 33.0296 22.4146 
6077 0 5 29.1004 28.4767 25.5142 
333 0 5 30.807 27.8847 24.9901 
2414 0 5 30.9049 33.0742 30.0119 
11192 0 5 32.8887 27.8152 32.6195 
ITEM: TIMESTEP
50000
ITEM: NUMBER OF ATOMS
475
ITEM: BOX BOUNDS pp pp pp
7.1354277009520928e-01 3.3076457229894366e+01
7.1354277009520928e-01 3.3076457229894366e+01
7.1354277009520928e-01 3.3076457229894366e+01
ITEM: ATOMS id mol type x y z 
23965 0 5 2.95025 5.66773 5.77335 
12439 0 5 1.76358 2.06901 2.67979 
9290 0 5 5.94346 4.69778 4.66476 
13288 0 5 3.98574 4.46292 6.37905 
6022 0 5 4.25993 3.48483 11.2742 
13640 0 5 4.51883 1.4128 11.1822 
21602 0 5 3.48433 2.60907 13.5124 
6368 0 5 5.74173 2.36946 18.751 
190 0 5 3.81594 4.63604 28.3336 
5281 0 5 3.39779 3.57896 31.1349 
6909 0 5 3.63053 1.28127 32.4479 
22209 0 5 4.51544 7.13606 4.07342 
18474 0 5 2.46336 9.84406 6.35399 
1164 0 5 1.48557 10.2881 16.7775 
9691 0 5 0.904875 9.66589 14.5611 
19335 0 5 3.90548 7.89523 17.5338 
23995 0 5 2.82828 11.3545 22.0327 
16745 0 5 2.04769 9.13907 18.8239 
24363 0 5 0.789694 6.7562 18.836 
1380 0 5 4.44556 10.885 22.6942 
2935 0 5 2.04797 10.9935 23.6343 
12125 0 5 4.31862 8.1293 24.363 
4532 0 5 3.48001 8.88642 31.9518 
23189 0 5 5.75985 8.45455 28.7639 
23722 0 5 5.59096 6.28953 30.7204 
8383 0 5 3.66199 15.7434 5.15081 
24492 0 5 4.71035 15.5419 5.71525 
6678 0 5 2.63501 12.8745 5.27939 
14585 0 5 5.61653 15.7537 0.718453 
1586 0 5 1.41489 13.0063 6.7651 
23930 0 5 4.88249 15.4234 6.71211 
10844 0 5 2.18302 15.3645 10.9776 
4625 0 5 1.01287 11.9292 10.1047 
19382 0 5 3.73095 12.6824 14.4989 
14566 0 5 1.422 14.2607 16.8682 
21648 0 5 5.19792 16.1325 18.8335 
1788 0 5 2.78593 16.4399 21.3024 
2799 0 5 4.80881 13.4556 23.7876 
6460 0 5 2.87344 15.7961 25.2339 
13321 0 5 4.51512 13.8727 25.2433 
6814 0 5 3.51367 16.2298 29.1685 
23964 0 5 3.18472 11.7932 31.7152 
9128 0 5 5.90587 18.566 4.28681 
23232 0 5 4.91303 20.2826 11.0901 
24314 0 5 5.75998 21.7013 10.6231 
20281 0 5 1.80431 19.539 8.92644 
12034 0 5 4.73118 21.3357 10.2782 
12008 0 5 0.631158 17.4587 6.20598 
9243 0 5 5.4499 22.0365 18.0103 
4446 0 5 4.14921 19.9929 20.5384 
4420 0 5 1.652 18.6407 21.1456 
1282 0 5 5.5403 16.9603 21.8193 
20296 0 5 3.58659 18.1234 23.5729 
2672 0 5 4.62171 21.8346 24.9298 
5555 0 5 3.48416 18.0527 26.3123 
877 0 5 1.94287 22.0946 30.9079 
9298 0 5 4.98444 20.0926 31.6183 
23763 0 5 0.908657 17.9961 29.4767 
32 0 5 3.41681 17.6457 30.7941 
6682 0 5 3.97676 17.4655 28.5833 
3614 0 5 2.77628 22.9537 1.68355 
24969 0 5 1.6038 22.3555 12.2067 
10487 0 5 3.4536 26.9256 18.9081 
23159 0 5 2.47271 24.9479 19.9853 
14451 0 5 5.80068 25.3124 21.8898 
10234 0 5 0.995479 23.97 27.1291 
17643 0 5 2.40175 23.4313 28.2088 
23938 0 5 5.16831 26.7298 28.3314 
24977 0 5 0.975538 32.5457 2.78416 
23446 0 5 1.9704 30.1788 3.2187 
11192 0 5 5.45013 28.3696 0.766901 
21369 0 5 3.81012 32.4131 10.6459 
18547 0 5 3.31762 30.8495 11.2908 
24573 0 5 2.34648 33.0104 16.3175 
26063 0 5 4.7487 30.8125 17.8956 
5948 0 5 2.24262 29.2469 20.2616 
14795 0 5 3.2655 28.8907 20.2288 
10266 0 5 4.74778 29.4027 24.8633 
24999 0 5 3.8526 30.1424 26.8014 
8307 0 5 5.02833 31.0704 26.3006 
15403 0 5 0.826093 28.2158 27.614 
12860 0 5 3.79429 27.9364 30.1537 
17384 0 5 3.93697 31.8664 32.7952 
19574 0 5 9.69496 1.91991 11.4897 
7807 0 5 11.0801 1.46188 7.96422 
6795 0 5 8.14079 1.0236 8.87934 
12383 0 5 11.0453 4.025 12.6761 
5002 0 5 10.4826 4.52488 11.6784 
4686 0 5 11.4477 5.54035 18.5049 
11294 0 5 8.15387 1.34856 19.7436 
9988 0 5 7.23651 3.04408 17.6479 
18741 0 5 6.85122 4.38074 24.2908 
24665 0 5 8.02684 10.0236 3.47715 
9744 0 5 8.33762 8.04368 11.1237 
22467 0 5 8.10398 7.13525 15.5185 
20317 0 5 8.10738 11.1627 19.324 
7582 0 5 6.57678 11.2136 17.7795 
9087 0 5 10.5937 7.12203 23.2097 
15662 0 5 7.11265 10.9554 32.649 
2304 0 5 11.0116 6.30009 30.4381 
4792 0 5 6.95311 13.7509 4.77564 
11862 0 5 6.40027 14.0724 7.68338 
5510 0 5 8.95235 12.7557 15.6511 
11084 0 5 10.4807 16.2903 11.9536 
11115 0 5 6.88375 13.5848 18.8959 
10805 0 5 8.42605 14.1991 19.3963 
23773 0 5 6.55954 12.0874 26.7993 
15445 0 5 11.0082 16.0583 27.3861 
9757 0 5 10.6747 15.725 23.2624 
19021 0 5 8.15162 12.728 30.2033 
13263 0 5 7.93573 15.1786 28.924 
6459 0 5 11.0757 19.2203 4.7122 
23380 0 5 7.81401 21.716 6.10201 
26737 0 5 9.28973 17.5976 14.3146 
23170 0 5 8.79256 17.704 19.2556 
21668 0 5 7.90164 18.1546 20.1007 
4911 0 5 9.24896 21.4451 19.2362 
24809 0 5 10.853 21.8911 20.7486 
13185 0 5 8.17655 17.1319 23.3591 
8422 0 5 8.58348 20.3865 22.5655 
10492 0 5 6.84914 17.8492 25.8591 
23789 0 5 8.6168 16.9305 22.4197 
3611 0 5 10.4805 17.9412 23.1236 
9396 0 5 6.36473 18.4115 22.6118 
4432 0 5 11.4851 19.6844 31.7901 
11893 0 5 11.1996 22.1484 30.3273 
975 0 5 11.0372 24.4225 5.67181 
1523 0 5 9.60244 26.3667 6.8091 
16009 0 5 10.6802 22.4499 14.6878 
4649 0 5 8.41215 22.8355 18.0476 
3492 0 5 9.18543 25.8707 25.1413 
16616 0 5 7.69548 22.8342 26.6179 
9697 0 5 8.87683 22.3345 22.3844 
13129 0 5 10.1041 25.7048 28.4787 
1168 0 5 9.77438 29.5046 4.7693 
21015 0 5 10.2218 30.76 5.37021 
13854 0 5 9.4008 28.222 7.22525 
16930 0 5 7.04214 30.1155 8.57288 
10540 0 5 6.97589 31.5829 17.8701 
3666 0 5 8.27767 30.0065 17.0758 
20578 0 5 6.41244 29.7844 21.5403 
18595 0 5 9.94572 28.591 23.793 
11602 0 5 10.6092 30.6558 24.9634 
20140 0 5 10.3577 27.9284 27.677 
9713 0 5 9.76124 28.0694 29.7314 
5334 0 5 10.1153 29.3049 30.785 
575 0 5 6.84738 32.434 28.1469 
19263 0 5 12.8875 2.89946 1.51169 
5734 0 5 16.3117 2.50391 4.69862 
8467 0 5 13.9609 3.44046 9.00426 
21091 0 5 15.0465 3.92254 8.2878 
8939 0 5 16.6023 4.14637 12.328 
7797 0 5 16.5396 5.74331 17.5114 
13674 0 5 15.7803 1.15015 26.1184 
22212 0 5 12.2011 1.28502 24.9781 
5507 0 5 11.805 3.78472 27.2162 
19084 0 5 14.3238 4.06403 26.3873 
15083 0 5 13.9781 6.80704 0.930672 
15139 0 5 11.8754 10.8723 1.32125 
25408 0 5 15.5892 10.1439 3.96709 
20765 0 5 13.3375 8.94758 7.19206 
3275 0 5 13.2745 6.84436 7.9544 
22503 0 5 12.715 6.82393 6.86733 
13546 0 5 11.5323 9.86845 11.6438 
14638 0 5 14.6345 7.68768 13.1052 
22140 0 5 15.7954 10.9377 14.472 
11878 0 5 11.6501 8.00528 21.8581 
26698 0 5 12.4475 6.36075 23.746 
5550 0 5 13.6921 9.94251 25.5512 
22322 0 5 11.544 9.42015 32.4484 
8928 0 5 12.2664 15.2328 10.552 
9838 0 5 15.5058 15.6286 10.6372 
9162 0 5 16.731 11.4372 9.67982 
18240 0 5 14.1212 11.783 12.3916 
13196 0 5 16.4564 16.3771 11.9582 
6184 0 5 15.2195 15.9228 16.1901 
21981 0 5 14.8943 13.6622 17.7964 
23338 0 5 16.7503 16.4328 19.571 
23769 0 5 14.4432 16.4686 24.7291 
5559 0 5 13.3374 14.4861 26.075 
2831 0 5 15.7786 14.933 26.6153 
13302 0 5 14.5205 15.0973 26.9554 
6993 0 5 14.2055 12.5221 26.3362 
4439 0 5 13.7193 14.9883 31.3336 
11722 0 5 13.0391 20.8266 5.6107 
16599 0 5 11.5769 20.9378 4.30488 
6427 0 5 16.6082 20.8617 11.0861 
24418 0 5 12.2196 20.3405 6.12757 
16254 0 5 14.7333 22.1269 6.61518 
13558 0 5 13.2815 18.6449 10.3383 
18999 0 5 14.827 18.8138 9.15624 
11781 0 5 12.9046 18.647 13.2259 
22613 0 5 13.2071 17.0359 13.6876 
18664 0 5 15.8075 22.2763 20.6943 
10303 0 5 13.5526 20.3082 18.0705 
7774 0 5 14.6716 20.928 17.7047 
3778 0 5 16.278 18.61 17.4451 
16595 0 5 13.5863 17.2468 23.1286 
19291 0 5 15.3252 21.6911 24.6829 
20717 0 5 14.1072 20.9439 25.6646 
6698 0 5 13.3516 17.8192 28.668 
9723 0 5 12.9345 16.8928 28.6037 
25957 0 5 13.9514 20.781 29.5758 
10698 0 5 13.4499 19.3525 30.4272 
9408 0 5 15.619 27.066 4.41758 
826 0 5 13.8272 23.0719 5.98141 
11956 0 5 16.506 23.4085 8.80481 
17480 0 5 15.9514 23.1714 7.34893 
14037 0 5 13.2306 22.9018 10.8907 
2294 0 5 15.6629 23.2636 12.6252 
14107 0 5 12.4609 26.3633 11.7382 
2776 0 5 16.5929 27.0865 15.3414 
9037 0 5 16.4586 27.3289 16.4852 
17473 0 5 14.5419 22.7495 14.5128 
26058 0 5 13.8867 23.7082 18.7547 
20728 0 5 14.1147 22.708 19.221 
18001 0 5 15.7862 24.2717 19.9604 
13469 0 5 13.8035 24.8526 19.5072 
14514 0 5 13.6227 24.6741 21.7796 
24313 0 5 12.2481 26.5155 27.4415 
22911 0 5 12.9006 27.5923 23.3604 
5875 0 5 16.2797 25.1855 31.9418 
15963 0 5 13.4818 22.5397 30.6337 
5742 0 5 15.1941 25.0347 27.8427 
7968 0 5 12.5324 22.4046 28.1107 
2923 0 5 13.9132 29.0697 1.36335 
26540 0 5 16.0105 30.3099 4.29441 
18116 0 5 14.5208 31.8111 5.05398 
16385 0 5 16.0117 32.3936 10.4807 
22522 0 5 13.8527 28.1137 11.997 
7013 0 5 14.702 28.024 12.7582 
1462 0 5 11.7899 31.7952 13.2011 
20751 0 5 13.2541 28.9398 20.3782 
3930 0 5 12.4694 28.3137 19.3032 
6281 0 5 12.438 28.1678 24.1112 
5241 0 5 16.4532 31.9956 27.3528 
18233 0 5 15.7867 32.826 27.0729 
4785 0 5 12.1042 30.0544 29.9278 
13966 0 5 14.148 30.9006 30.6226 
16272 0 5 18.0963 5.76114 4.40601 
24589 0 5 19.4181 5.48192 1.89506 
24579 0 5 18.9975 3.55528 2.78494 
17629 0 5 19.8833 5.60353 4.85265 
20044 0 5 17.485 3.11198 9.86294 
12161 0 5 21.7571 4.77409 8.50981 
20318 0 5 20.0543 3.76432 13.605 
10795 0 5 20.2272 3.32639 15.4588 
11797 0 5 21.8588 2.61374 17.7524 
17362 0 5 20.2822 3.36919 32.3523 
17713 0 5 17.2628 4.33168 31.8556 
18101 0 5 20.5479 2.19825 30.1665 
18983 0 5 21.9578 3.76869 32.8639 
20447 0 5 22.031 9.89511 2.5072 
19255 0 5 21.5768 8.21697 2.50765 
12939 0 5 21.0591 9.04771 0.820404 
22496 0 5 20.3864 7.90288 4.3931 
19062 0 5 19.5918 11.2507 13.9847 
3187 0 5 19.5249 10.7013 12.9113 
3418 0 5 20.5845 7.85298 23.1429 
7018 0 5 20.1705 9.98882 25.1937 
13662 0 5 19.4041 11.0988 25.5268 
16693 0 5 18.0857 7.5923 29.0418 
1388 0 5 21.2564 9.48427 30.4018 
16498 0 5 17.9704 9.60955 30.8253 
16347 0 5 18.5753 15.3133 2.49018 
19340 0 5 18.7102 12.2496 2.51299 
13452 0 5 21.4192 14.1899 6.9021 
20801 0 5 18.5867 14.0085 10.9647 
1828 0 5 17.4235 15.0589 13.4217 
13293 0 5 18.7378 14.0961 14.5302 
25834 0 5 17.4603 15.6694 17.0323 
25409 0 5 19.958 16.8532 19.4581 
9021 0 5 21.489 12.8943 20.1607 
18427 0 5 18.6439 16.5147 19.3007 
18053 0 5 19.6222 15.4438 21.8611 
25747 0 5 17.175 14.9916 19.775 
27000 0 5 16.9211 15.3446 23.2801 
13568 0 5 18.141 12.9896 26.1544 
5785 0 5 17.1035 16.7395 24.4403 
25908 0 5 19.5132 12.0602 25.6913 
11484 0 5 18.663 16.0777 27.1664 
15230 0 5 17.5844 13.8308 28.0064 
7622 0 5 20.5362 13.7406 30.6895 
23624 0 5 17.8677 21.7007 3.38503 
21070 0 5 18.0581 22.1185 7.34874 
5544 0 5 20.2221 18.4202 8.73545 
2790 0 5 21.4942 19.1332 10.5373 
17502 0 5 17.8859 17.4143 10.7055 
15873 0 5 16.8983 17.6666 16.5709 
19578 0 5 19.3672 20.125 14.3487 
16695 0 5 21.2196 19.6583 12.9027 
589 0 5 22.1364 17.8258 15.6103 
24506 0 5 19.9551 19.7683 17.9931 
13964 0 5 17.6824 21.0846 17.6836 
14478 0 5 17.0682 17.2007 17.654 
24563 0 5 21.5239 19.0405 22.1699 
15953 0 5 18.1992 20.6696 19.9688 
17346 0 5 22.18 19.0447 19.3526 
23989 0 5 19.5188 18.0952 23.1874 
16719 0 5 17.0554 20.5237 23.9815 
19973 0 5 20.9351 21.907 27.4787 
19928 0 5 18.2976 20.37 22.3665 
16387 0 5 18.6095 17.055 25.7186 
24311 0 5 20.6384 19.0253 29.567 
16206 0 5 18.7008 21.9154 32.5187 
17380 0 5 20.8422 24.8964 1.80371 
12950 0 5 19.7793 23.097 0.921686 
22213 0 5 16.9972 22.7197 7.63188 
16148 0 5 22.225 27.1984 16.4265 
15647 0 5 18.1913 22.5974 15.9079 
7211 0 5 17.4459 22.9574 19.8555 
15579 0 5 20.4693 24.3317 20.7582 
333 0 5 21.5133 24.4157 24.6573 
3613 0 5 18.0197 26.4945 26.4836 
291 0 5 18.3881 25.3133 26.2991 
3087 0 5 21.131 23.1197 30.2358 
8881 0 5 17.6686 26.4015 29.5719 
8139 0 5 18.1047 28.9821 3.66195 
981 0 5 18.092 29.7514 10.7403 
652 0 5 17.1333 31.2124 15.427 
12090 0 5 20.6383 28.2451 16.401 
8773 0 5 21.9402 28.4039 16.7891 
20242 0 5 20.0584 29.218 14.6984 
10488 0 5 22.1408 31.4345 19.1468 
9202 0 5 22.1528 31.8897 18.0445 
1002 0 5 18.5 29.7288 20.1158 
20476 0 5 20.445 30.3515 17.2454 
16038 0 5 19.4393 31.2678 25.268 
15575 0 5 20.3741 28.1921 27.0238 
2581 0 5 17.0936 32.6957 29.4084 
20455 0 5 17.6023 28.5052 29.988 
12486 0 5 18.0335 29.756 28.2417 
20169 0 5 17.5849 31.7071 31.3343 
1613 0 5 26.3411 2.80287 1.72761 
14397 0 5 23.1378 0.958372 3.82567 
3661 0 5 22.4308 1.37244 6.19682 
17247 0 5 24.4728 2.05902 18.0836 
14398 0 5 24.8414 5.58577 21.8606 
14455 0 5 24.338 2.26911 22.7688 
23191 0 5 26.0343 2.06654 23.1193 
19974 0 5 23.1454 1.68445 25.2243 
11521 0 5 24.7493 1.94567 25.1663 
534 0 5 24.0544 5.93296 22.7856 
14516 0 5 23.0147 2.5282 26.3744 
18211 0 5 23.4685 5.55582 27.2916 
20269 0 5 27.4065 1.61625 30.7787 
9878 0 5 22.9027 5.88818 29.0305 
21438 0 5 25.3066 3.47109 32.0314 
2414 0 5 25.3443 1.27454 28.4971 
10895 0 5 23.1077 1.26249 30.8078 
1501 0 5 24.1162 11.0184 6.27285 
14393 0 5 23.1245 6.79044 8.47958 
14793 0 5 23.2935 6.63565 11.9612 
15539 0 5 24.7118 11.1628 15.6677 
16748 0 5 24.9816 7.09585 19.6624 
5227 0 5 23.6535 7.2335 21.2605 
4028 0 5 23.2298 9.93164 23.8829 
10477 0 5 24.3637 6.15216 24.7445 
6565 0 5 24.4746 9.38473 25.0659 
25788 0 5 27.1278 10.5684 25.5666 
2243 0 5 23.219 9.4637 30.2118 
16074 0 5 23.9477 8.06907 32.1758 
9050 0 5 22.535 13.6927 3.48411 
2494 0 5 23.5815 13.1526 5.46263 
6429 0 5 22.3345 11.8049 4.34656 
6370 0 5 23.77 15.3706 6.52357 
9520 0 5 23.3151 16.731 11.2485 
18111 0 5 26.5841 15.6808 12.8451 
14382 0 5 24.6054 11.8447 16.5393 
6566 0 5 26.7773 15.4663 15.4076 
18380 0 5 24.7867 14.7245 19.5554 
21982 0 5 23.3124 15.7282 26.3092 
16469 0 5 27.2905 12.0111 27.1294 
22893 0 5 24.7331 12.5432 23.1327 
12568 0 5 23.1877 12.2032 26.3569 
25277 0 5 24.4365 13.8704 26.3687 
6356 0 5 26.1229 14.2681 25.9889 
6358 0 5 22.2885 16.4106 31.5574 
8925 0 5 22.3437 19.8619 4.47144 
22808 0 5 26.7268 21.7108 15.8847 
13137 0 5 25.3003 19.2092 14.1869 
25043 0 5 26.2222 17.6551 16.7507 
24478 0 5 26.3887 17.2426 19.1268 
17248 0 5 27.2852 21.7522 22.1364 
15007 0 5 23.4221 20.3845 22.9108 