ITEM: TIMESTEP
7000000
ITEM: NUMBER OF ATOMS
950
ITEM: BOX BOUNDS pp pp pp
7.1354277009520928e-01 3.3076457229894366e+01
7.1354277009520928e-01 3.3076457229894366e+01
7.1354277009520928e-01 3.3076457229894366e+01
ITEM: ATOMS id mol type x y z 
9902 0 5 1.66787 2.00183 2.24708 
11060 0 5 2.19434 3.0012 2.3427 
4147 0 5 5.60023 2.86727 1.51093 
3561 0 5 5.84542 3.74258 2.17264 
2109 0 5 5.47689 3.98816 3.50356 
24426 0 5 3.38447 1.30539 5.37906 
8559 0 5 5.38034 0.870909 7.14907 
18623 0 5 4.36803 1.52317 6.85821 
21310 0 5 5.31255 4.82553 7.41848 
16138 0 5 0.716646 5.96119 8.14898 
22922 0 5 2.34645 1.30646 10.7034 
21630 0 5 5.71152 5.96803 11.61 
9726 0 5 4.04444 1.37311 14.6183 
16845 0 5 2.39015 5.89198 14.3853 
17721 0 5 5.49795 4.37993 14.1929 
22511 0 5 3.93406 2.91651 16.905 
12362 0 5 1.91796 5.00239 17.7207 
14026 0 5 4.27854 1.96493 22.5117 
26107 0 5 1.98066 2.88255 23.0158 
2011 0 5 0.824213 3.40237 25.2501 
15103 0 5 0.716465 5.7822 25.6833 
20351 0 5 0.748551 4.56345 25.7826 
15659 0 5 4.56524 4.51437 24.8048 
6537 0 5 1.02265 1.35241 29.4894 
11872 0 5 3.59883 0.93018 31.1734 
4348 0 5 6.07865 4.24494 30.1492 
12612 0 5 5.14798 3.22177 31.5176 
22675 0 5 5.131 3.80017 32.9913 
5227 0 5 4.29239 8.40168 1.44923 
9728 0 5 3.39447 10.2642 1.4153 
13077 0 5 4.86609 7.21972 4.97711 
13982 0 5 1.88372 10.8875 6.4575 
7763 0 5 3.38372 6.32909 9.5731 
14435 0 5 1.58614 8.31121 9.26709 
5442 0 5 1.54927 8.96749 13.5048 
22158 0 5 2.34264 7.9031 19.3729 
13082 0 5 1.65322 6.42876 20.5082 
14863 0 5 2.2689 8.48176 21.1053 
2648 0 5 2.06604 11.2838 22.1261 
11732 0 5 4.01627 7.5708 23.8823 
21066 0 5 4.36463 9.39703 25.6765 
9760 0 5 2.03105 10.4314 27.0705 
16371 0 5 1.35346 7.68999 29.7207 
15727 0 5 1.73736 7.1348 30.6724 
20495 0 5 1.9718 6.15253 30.2756 
12922 0 5 5.85717 9.66028 32.0525 
24272 0 5 5.13944 12.4894 1.37521 
24345 0 5 2.30813 16.4147 2.37515 
1119 0 5 4.99013 12.3144 4.11625 
14588 0 5 5.9239 15.0266 2.95959 
22167 0 5 5.90371 16.2327 5.98005 
18021 0 5 2.10373 14.7794 7.54698 
15500 0 5 3.16488 14.9912 6.64947 
8884 0 5 6.02514 14.8572 7.94754 
5258 0 5 2.61229 15.7321 8.64863 
1830 0 5 1.98163 16.7268 10.0381 
5112 0 5 1.06879 16.1826 12.8835 
24623 0 5 1.77508 11.6999 14.1598 
6562 0 5 5.54239 12.7924 13.3091 
2425 0 5 2.34714 14.5489 13.737 
15729 0 5 3.55123 14.5377 14.7232 
24506 0 5 5.03402 14.9945 13.4951 
11626 0 5 1.93844 14.2558 15.4016 
9454 0 5 2.61822 15.5797 15.2127 
16743 0 5 4.2917 15.8094 15.4325 
4495 0 5 3.53033 11.5058 18.467 
11778 0 5 1.23781 14.8756 22.8032 
12571 0 5 1.38638 12.2608 24.2995 
9150 0 5 2.75398 14.4965 25.8937 
15551 0 5 2.39632 13.9642 28.3031 
8932 0 5 2.5496 12.9465 30.2961 
26981 0 5 4.37622 11.9557 32.1561 
17351 0 5 3.28306 19.9081 2.49916 
23842 0 5 5.27019 21.1775 2.18169 
25283 0 5 5.82954 22.1984 1.5064 
4135 0 5 5.43884 17.437 2.88891 
830 0 5 0.961891 20.3117 2.94476 
6752 0 5 4.30364 17.8066 4.38559 
12020 0 5 1.04668 19.378 4.44307 
1003 0 5 3.46614 17.9286 6.40208 
18462 0 5 4.79024 19.2519 8.5301 
17749 0 5 3.42879 20.7611 8.60169 
10225 0 5 5.46965 21.554 9.05818 
9520 0 5 4.01079 17.2185 11.2122 
5507 0 5 3.86513 21.8006 15.8275 
19966 0 5 4.41534 16.9462 17.6336 
22940 0 5 1.52337 18.8881 18.0376 
25013 0 5 3.77051 19.6943 17.364 
12087 0 5 2.0033 18.7265 19.0627 
14086 0 5 4.86275 20.0961 23.7699 
20579 0 5 5.7769 21.0604 22.541 
5882 0 5 4.32627 18.6366 25.1474 
9293 0 5 5.99907 21.1399 24.5004 
16890 0 5 2.73716 17.9704 27.3097 
21374 0 5 5.41435 17.0411 25.9924 
14497 0 5 1.49165 17.5996 29.0247 
2630 0 5 5.66263 20.5219 29.055 
137 0 5 2.15926 18.2872 29.9296 
22237 0 5 5.45352 18.2712 30.7531 
13671 0 5 1.86261 19.799 30.3214 
14884 0 5 3.02711 20.8601 31.0846 
6290 0 5 4.45556 22.7027 1.10761 
26594 0 5 3.18731 26.1749 1.24017 
12656 0 5 3.61407 27.6256 2.39172 
18080 0 5 2.60584 23.6414 2.69986 
10243 0 5 2.37537 26.7849 3.78583 
2094 0 5 1.4997 27.2087 5.86999 
20606 0 5 2.42131 27.1855 7.96621 
23175 0 5 3.51418 24.7834 11.2454 
4633 0 5 4.93266 26.5033 9.81648 
353 0 5 3.35856 25.4978 12.1199 
18054 0 5 4.22161 24.7484 13.2476 
18703 0 5 5.6757 25.5952 12.4392 
5240 0 5 2.58387 26.6474 11.7523 
19378 0 5 5.1826 25.086 16.095 
15450 0 5 5.32979 22.8816 17.4818 
18361 0 5 2.68583 24.2088 17.3934 
15854 0 5 5.35375 25.0799 17.0955 
24131 0 5 3.50395 26.4728 18.0518 
11366 0 5 5.37129 25.006 22.132 
16130 0 5 4.2969 27.3958 22.2675 
9699 0 5 4.71226 22.4964 23.2361 
19004 0 5 6.03906 23.2347 22.5416 
2940 0 5 4.78349 25.4861 25.7345 
20061 0 5 2.6869 26.7183 25.6679 
3429 0 5 5.31716 24.8799 26.4178 
22899 0 5 3.65888 27.2315 26.1487 
22217 0 5 3.83875 25.1816 31.1519 
20388 0 5 1.74838 26.2635 30.8777 
16716 0 5 5.5872 26.1336 31.0042 
12411 0 5 4.71954 26.3553 30.1139 
56 0 5 2.8026 23.3177 32.4678 
22506 0 5 2.00712 26.534 32.6019 
26673 0 5 5.38782 29.3304 1.03327 
22402 0 5 1.32469 33.0114 1.47241 
16286 0 5 0.816105 27.9381 2.71069 
24737 0 5 3.952 28.6917 2.51847 
23182 0 5 2.65173 32.2378 2.94759 
14448 0 5 4.06896 31.5982 3.06824 
20964 0 5 5.57165 31.1346 6.17939 
12952 0 5 3.60259 32.5801 7.83487 
14424 0 5 4.1707 30.4522 8.14553 
1272 0 5 5.13365 28.9445 10.7014 
11707 0 5 5.33489 31.1325 12.3749 
23691 0 5 1.50673 32.6327 12.7971 
21841 0 5 1.13217 32.0962 11.5106 
10114 0 5 6.04526 28.4049 13.8919 
22477 0 5 3.01807 28.9744 17.3079 
20587 0 5 4.02672 28.879 18.5571 
13520 0 5 4.1809 30.7753 16.932 
5576 0 5 6.10255 30.8524 21.7218 
11116 0 5 3.93023 29.4304 23.4394 
7683 0 5 5.71732 31.3532 22.7381 
14749 0 5 1.19517 28.289 25.3751 
20973 0 5 4.59315 31.4927 25.5088 
974 0 5 1.11567 30.3309 26.3019 
17006 0 5 3.63045 32.5848 30.3805 
2327 0 5 0.839198 30.0294 31.5496 
8624 0 5 4.56955 30.3126 31.6126 
19265 0 5 8.84414 2.99546 2.0611 
3174 0 5 6.77863 2.26725 2.84174 
15570 0 5 7.91943 5.26514 3.28793 
9116 0 5 6.17668 5.44704 6.72126 
20869 0 5 6.80961 1.60699 8.09946 
13551 0 5 8.92339 3.33723 9.74141 
11661 0 5 6.61384 0.782987 13.1502 
4535 0 5 7.39384 2.1091 11.8699 
4444 0 5 8.55759 5.79102 11.7686 
12815 0 5 9.81341 1.97091 15.0604 
20255 0 5 8.39908 4.42054 15.5196 
7827 0 5 8.7187 1.12781 17.286 
1600 0 5 10.5588 1.03317 17.9954 
22450 0 5 7.86168 4.01239 20.1098 
24026 0 5 8.81802 3.22408 19.2079 
21953 0 5 7.72087 4.43493 21.2034 
898 0 5 8.71623 5.90005 23.3024 
21818 0 5 6.463 0.713942 32.6555 
6317 0 5 8.68361 5.09184 31.5377 
15951 0 5 10.3668 5.27576 31.6112 
12201 0 5 10.0102 8.73832 0.851043 
4576 0 5 10.9384 10.5142 0.997165 
18906 0 5 7.4079 6.92468 3.75383 
17437 0 5 6.16897 8.45647 2.84283 
26485 0 5 9.33717 10.1735 4.3955 
12881 0 5 6.17405 9.52769 7.15134 
20455 0 5 8.48099 11.3536 7.43934 
20663 0 5 6.54687 7.40625 9.59287 
15695 0 5 6.81447 9.28403 9.07652 
9261 0 5 6.48751 10.1514 7.92314 
8875 0 5 9.69806 10.5355 10.7099 
21291 0 5 10.0765 9.67681 18.6587 
14051 0 5 10.5969 10.1498 17.517 
8805 0 5 6.60727 6.19605 21.7273 
14444 0 5 6.95221 6.83296 20.9713 
15448 0 5 9.81445 7.47736 23.7376 
10734 0 5 10.554 8.57426 24.2638 
16277 0 5 8.06687 8.71883 26.7019 
3927 0 5 11.0936 7.91746 27.2782 
18470 0 5 6.38316 10.4149 28.5506 
7845 0 5 9.83247 6.28656 30.6103 
9227 0 5 8.44709 7.55979 32.2871 
21251 0 5 10.8201 7.98895 33.0437 
16961 0 5 9.20828 13.1355 1.507 
7029 0 5 8.90496 15.3052 2.45867 
19978 0 5 9.31532 13.3355 5.21852 
21086 0 5 11.2365 13.7336 4.42114 
9507 0 5 7.01715 16.7425 6.05631 
23253 0 5 8.62352 12.4096 7.64331 
10329 0 5 7.71314 12.0353 13.0963 
7636 0 5 9.44484 12.003 12.2218 
14161 0 5 8.71416 11.7495 11.5154 
21720 0 5 8.81382 14.8433 13.2618 
13078 0 5 11.1654 14.0033 12.0193 
21753 0 5 9.85187 15.8897 12.5127 
11359 0 5 7.70073 12.3476 14.4818 
5596 0 5 7.96166 13.0355 13.5571 
12337 0 5 6.49791 16.1872 14.9054 
7152 0 5 9.83272 16.4027 15.8317 
17499 0 5 7.26891 15.8812 20.2964 
21571 0 5 7.14115 13.7566 22.1933 
9077 0 5 7.96722 13.3175 22.4316 
4736 0 5 11.2958 14.8849 23.0916 
8491 0 5 10.149 13.33 25.033 
9831 0 5 10.8308 11.6288 27.2325 
25310 0 5 8.42296 14.5193 26.248 
20243 0 5 10.6533 12.3631 29.1926 
10119 0 5 7.56736 13.3782 27.6888 
4474 0 5 9.58118 13.7186 32.5355 
17316 0 5 10.6594 14.0886 32.7242 
16801 0 5 9.97531 14.931 31.5377 
18531 0 5 7.75992 16.6899 32.0445 
10814 0 5 11.2843 19.6622 1.75105 
23343 0 5 10.3561 19.679 6.52405 
16720 0 5 10.8367 19.9897 9.54424 
1578 0 5 10.573 20.8928 8.41257 
18368 0 5 7.14468 17.3384 10.8727 
21970 0 5 7.49859 18.4809 9.93952 
14114 0 5 9.85207 18.4155 10.5591 
2242 0 5 8.59005 19.9608 13.2741 
14434 0 5 10.9894 18.192 13.8156 
2599 0 5 11.3744 16.9848 13.7775 
15953 0 5 9.16406 19.2782 14.682 
4497 0 5 8.75376 20.1892 16.5998 
7826 0 5 9.51372 20.4683 18.3285 
54 0 5 9.45605 21.5866 17.961 
8227 0 5 10.4196 19.2285 20.0642 
26529 0 5 7.67564 20.7036 19.4313 
5908 0 5 8.23046 22.1756 20.0979 
7170 0 5 6.46247 18.7957 21.5411 
7351 0 5 9.37863 19.4756 20.9776 
26600 0 5 8.30594 19.7792 21.963 
886 0 5 10.3103 20.1011 22.2676 
7679 0 5 6.4165 17.1727 27.6109 
12539 0 5 8.97672 20.7805 26.0849 
23689 0 5 7.7849 18.6076 28.4095 
17249 0 5 8.72703 18.0366 28.9902 
20461 0 5 11.0313 22.0842 31.026 
11294 0 5 8.7386 22.1932 31.9882 
17756 0 5 7.32387 25.4884 0.881668 
15145 0 5 11.1142 26.9649 2.41056 
15030 0 5 8.96738 23.4406 4.0533 
17354 0 5 8.3633 24.9148 2.73636 
4305 0 5 9.66103 24.9441 3.89858 
12419 0 5 6.54242 24.1851 4.52995 
806 0 5 9.10802 24.3951 5.96909 
14759 0 5 8.12314 24.4933 6.51743 
9142 0 5 8.98128 24.1942 7.1617 
23030 0 5 6.81602 24.2181 8.8776 
22452 0 5 6.45712 23.2998 13.0673 
21060 0 5 10.5822 26.0823 14.518 
1083 0 5 7.89721 23.3738 16.0814 
8427 0 5 9.83114 23.3322 16.3484 
13700 0 5 10.1676 24.5374 15.8858 
23922 0 5 10.7991 25.6697 18.6805 
10934 0 5 9.11127 26.4805 18.0774 
11714 0 5 9.9762 23.4143 23.9035 
4548 0 5 7.07406 23.1626 24.5408 
11479 0 5 6.47818 24.5053 24.1437 
20410 0 5 9.98736 25.7812 26.4528 
8719 0 5 9.56967 26.6168 28.4756 
6030 0 5 7.64464 26.6713 30.8012 
8545 0 5 8.98964 24.6694 32.5062 
21973 0 5 10.8596 30.0502 2.01741 
19928 0 5 7.79157 32.1861 7.20908 
3955 0 5 6.75639 32.3294 6.5437 
26099 0 5 9.3113 28.1672 10.1557 
24956 0 5 8.71893 29.839 10.0438 
14587 0 5 9.59056 28.4666 11.8593 
236 0 5 8.09206 29.2842 12.6141 
2977 0 5 9.19001 30.9742 11.5333 
8603 0 5 11.0316 32.5414 11.9623 
16432 0 5 7.75891 28.0392 14.2937 
22946 0 5 8.81743 30.545 15.2073 
18124 0 5 10.7415 29.6019 20.4132 
535 0 5 11.2288 28.7031 20.8586 
6986 0 5 11.1716 31.7609 22.0018 
23042 0 5 6.14614 29.7082 25.355 
9265 0 5 6.35368 31.774 25.176 
9921 0 5 6.3976 32.2231 27.0359 
19972 0 5 9.82322 32.0046 28.7779 
8204 0 5 9.1385 27.8889 30.3024 
7350 0 5 11.2196 32.8244 31.2261 
13965 0 5 7.89441 31.0787 31.9869 
23620 0 5 7.55573 30.1303 31.5232 
12590 0 5 14.6643 2.58362 2.23413 
5115 0 5 13.1088 4.65597 2.23067 
10743 0 5 11.7531 1.35575 3.92388 
13145 0 5 16.1547 2.21329 3.66512 
10042 0 5 14.0388 2.96195 2.88297 
19991 0 5 13.4286 4.2499 5.90671 
24095 0 5 12.4405 2.26137 6.24686 
24567 0 5 12.7633 4.23334 8.54091 
2753 0 5 16.29 6.00745 11.282 
22549 0 5 11.8072 4.13588 11.5905 
23933 0 5 16.5988 2.89002 12.219 
17992 0 5 11.8989 1.77109 14.8983 
16372 0 5 12.9615 2.04145 14.879 
24726 0 5 12.8957 4.05907 13.6648 
18240 0 5 16.6494 5.13136 15.0089 
7488 0 5 14.8355 0.876033 16.4387 
25410 0 5 14.0466 3.35216 17.2371 
212 0 5 12.8886 1.42107 19.2975 
8337 0 5 14.1547 2.14052 19.6303 
17451 0 5 16.7009 4.07431 19.6731 
11468 0 5 13.6564 1.37395 20.9624 
14478 0 5 16.4071 2.0224 21.3991 
13398 0 5 14.0566 2.60858 21.5487 
14244 0 5 14.6132 4.53841 21.6936 
18566 0 5 15.1404 2.45635 23.7655 
20235 0 5 14.4077 1.90324 24.3453 
12958 0 5 13.2768 4.68002 25.9764 
15322 0 5 11.5097 1.6382 30.6791 
15395 0 5 15.2102 1.27504 30.0802 
10201 0 5 11.8545 2.33886 31.3317 
24985 0 5 14.1602 0.900782 31.5145 
21141 0 5 16.1564 1.62851 32.0587 
7334 0 5 14.3704 5.30558 31.9762 
26816 0 5 15.9153 6.99023 2.34502 
26829 0 5 13.7031 10.4296 0.852595 
13558 0 5 13.5518 11.2181 8.69415 
13964 0 5 16.6173 10.0302 8.97928 
25571 0 5 13.3357 7.25796 13.0535 
9636 0 5 15.9426 6.30596 14.8323 
21432 0 5 16.7512 8.8365 15.996 
24307 0 5 13.2103 10.0954 15.8658 
25127 0 5 13.5159 10.9531 17.7143 
4562 0 5 12.3492 7.87239 18.9066 
2181 0 5 16.5388 8.82061 21.3723 
26137 0 5 12.9833 11.1244 20.7039 
15718 0 5 13.1834 6.54555 23.5795 
9686 0 5 14.7943 6.24959 22.4987 
21408 0 5 16.7393 7.07049 24.478 
22936 0 5 12.5981 9.76531 28.986 
18618 0 5 14.1627 10.2489 28.2978 
9776 0 5 15.2767 8.11926 29.7204 
11969 0 5 16.2767 8.08597 30.9197 
2678 0 5 16.1291 7.13183 32.3851 
16746 0 5 11.5665 15.0921 2.0583 
24817 0 5 11.9036 13.9944 1.37888 
1959 0 5 11.8122 16.1731 2.47678 
19915 0 5 15.1144 15.9096 0.727994 
3110 0 5 16.1632 11.7435 3.46095 
23702 0 5 14.8623 13.51 3.43359 
24566 0 5 16.7811 12.1131 6.06139 
21597 0 5 14.0718 14.1379 5.34373 
481 0 5 11.5317 12.2265 7.86397 
18005 0 5 14.4652 13.2155 8.06503 
23245 0 5 15.6974 12.8236 8.02541 
2961 0 5 12.2311 12.0816 10.1301 
20379 0 5 13.8146 15.2447 10.3933 
23084 0 5 14.9923 13.7679 13.9497 
13694 0 5 13.3358 13.9074 14.3981 
3187 0 5 15.7658 12.6915 18.4727 
7501 0 5 16.7732 11.8273 20.1949 
7241 0 5 13.1153 15.2199 19.133 
12903 0 5 14.146 16.3119 19.7083 
20889 0 5 15.7842 11.6435 23.3249 
4284 0 5 16.7877 14.6228 24.3465 
998 0 5 15.288 14.5952 25.874 
16776 0 5 13.8292 14.3762 26.6561 
654 0 5 14.9114 11.7982 28.3381 
17020 0 5 12.4476 14.2524 31.1297 
5274 0 5 12.8583 15.3905 30.8401 
25838 0 5 13.5797 15.194 29.8307 
26072 0 5 12.5872 21.4037 0.724376 
1048 0 5 11.587 21.921 2.05837 
4892 0 5 13.0056 19.4942 3.69619 
35 0 5 15.305 19.1986 9.69031 
6263 0 5 14.5202 18.1423 10.9057 
9878 0 5 12.4585 19.8846 10.9705 
8912 0 5 13.733 22.2155 12.8875 
14476 0 5 14.7146 21.919 12.1758 
15014 0 5 16.7538 20.2142 13.6653 
17918 0 5 16.2569 21.0967 13.3866 
21509 0 5 12.8278 18.5163 16.5286 
13277 0 5 16.0641 21.1873 15.8443 
13399 0 5 12.7453 17.8034 17.3423 
20241 0 5 12.5516 19.768 20.3802 
23927 0 5 13.1472 19.1381 21.2652 
11378 0 5 12.169 17.5349 23.484 
19485 0 5 14.5628 20.8511 23.0844 
26751 0 5 13.4609 18.1155 24.6263 
2844 0 5 16.825 17.6034 25.1773 
16493 0 5 14.3951 20.7229 25.2557 
7901 0 5 15.1618 20.6062 24.2198 
18533 0 5 16.8698 20.8251 27.1028 
1770 0 5 12.4425 17.0927 28.5556 
17191 0 5 11.8719 18.3113 28.5955 
10190 0 5 16.4424 18.4149 27.7784 
15219 0 5 16.0065 20.2815 31.2625 
12925 0 5 12.0808 22.0638 30.2026 
6264 0 5 16.5445 20.4827 32.4369 
26994 0 5 11.9239 21.5062 31.3641 
11807 0 5 14.7216 20.4991 31.4019 
19863 0 5 15.3133 24.535 1.44477 
4530 0 5 13.2497 25.3631 3.60978 
15385 0 5 12.0164 23.7209 4.75609 
12366 0 5 13.9193 22.724 4.63436 
16489 0 5 12.5414 25.7787 4.98403 
3943 0 5 16.5281 25.397 10.6452 
26102 0 5 12.2533 27.2889 10.0816 
8779 0 5 12.9685 27.2151 10.95 
9698 0 5 14.0174 23.4151 12.6519 
1799 0 5 13.8289 27.2957 12.9488 
15992 0 5 16.6087 24.6901 14.1894 
8600 0 5 12.3212 22.3053 16.3882 
10695 0 5 12.433 24.7632 15.1721 
8757 0 5 12.274 25.5141 15.9971 
12447 0 5 13.9751 25.0497 15.7216 
20216 0 5 12.251 26.4473 15.8383 
13773 0 5 15.9841 25.9036 16.4014 
5497 0 5 12.9415 27.454 17.8247 
15624 0 5 13.9474 25.6156 19.6918 
1579 0 5 16.3094 24.7056 19.554 
11195 0 5 14.6294 26.2134 19.1864 
13646 0 5 14.372 24.6124 22.4124 
6972 0 5 13.8974 25.964 28.4663 
12281 0 5 16.6115 22.7873 30.7773 
5854 0 5 14.8717 25.0941 31.0007 
6461 0 5 16.0462 24.3397 30.2717 
2821 0 5 12.8814 23.8363 32.3884 
24627 0 5 11.9339 28.4918 2.31809 
4626 0 5 15.3544 31.3672 0.824759 
14127 0 5 13.704 31.4118 2.72516 
16820 0 5 14.8641 32.2393 5.0369 
16629 0 5 12.0222 28.7034 8.5313 
3669 0 5 14.872 32.0818 8.34165 
18289 0 5 16.7628 28.1754 10.7549 
22912 0 5 13.0452 30.0795 11.4791 
23009 0 5 16.8811 31.4741 10.6941 
18908 0 5 16.7859 29.7995 11.9462 
8924 0 5 16.0088 30.1078 12.5689 
20266 0 5 13.9649 32.9574 12.3385 
23806 0 5 11.8414 30.9123 14.2539 
18697 0 5 14.571 32.5462 14.5143 
13036 0 5 16.8877 31.7137 15.5993 
22839 0 5 13.2604 32.6802 17.5939 
714 0 5 14.4374 31.8071 18.407 
6744 0 5 11.7872 29.1858 19.9749 
2418 0 5 13.9841 32.6181 20.6127 
23002 0 5 14.9515 29.4305 22.3526 
17262 0 5 15.8578 28.5578 23.1946 
15346 0 5 15.9227 29.3568 22.6927 
8573 0 5 13.0423 28.9729 25.0246 
3196 0 5 15.1444 31.9144 25.2165 
13448 0 5 12.5281 32.6837 26.3279 
6932 0 5 13.433 28.2268 28.7904 
24361 0 5 12.4842 32.939 28.9443 
5592 0 5 11.8968 31.9683 28.3633 
20680 0 5 14.7174 28.2383 30.6086 
7604 0 5 15.3933 29.2907 29.9954 
15312 0 5 13.3808 31.096 31.962 
11401 0 5 17.4731 4.81554 2.37107 
23921 0 5 21.9895 4.09326 3.25648 
4004 0 5 19.8777 6.06701 2.93688 
20056 0 5 18.3275 5.38535 13.8942 
8934 0 5 17.6797 5.33539 14.7691 
17100 0 5 19.3962 2.11883 17.187 
15376 0 5 17.8385 3.89164 20.2653 
5909 0 5 18.9717 2.54724 20.0667 
25019 0 5 18.4295 1.35197 21.9212 
12867 0 5 17.2366 1.094 21.5609 
16680 0 5 18.3536 1.12585 20.6513 
15637 0 5 17.6493 1.13802 22.7205 
20751 0 5 20.7047 1.07869 23.821 
20493 0 5 18.6438 5.82507 22.5235 
17330 0 5 17.565 4.5436 24.2547 
10245 0 5 19.24 1.8715 26.0141 
22937 0 5 19.324 3.05063 25.9839 
14242 0 5 18.0332 5.83676 27.1415 
15963 0 5 19.6386 1.71499 29.5503 
5946 0 5 17.4869 10.2501 1.93551 
4948 0 5 19.0629 10.6194 0.821366 
874 0 5 18.0422 9.69175 4.15319 
15098 0 5 18.7611 9.61532 2.85584 
16698 0 5 18.2429 11.2168 2.87365 
25119 0 5 19.6085 10.2076 8.75537 
15654 0 5 19.897 9.48388 10.1534 
5656 0 5 17.5397 10.338 10.9813 
13859 0 5 21.8458 11.0168 11.3706 
14563 0 5 18.7198 6.16733 12.9171 
21662 0 5 21.8959 10.7042 12.4593 
1645 0 5 17.779 6.61586 14.1299 
16711 0 5 20.1765 6.50358 14.8369 
8914 0 5 20.2067 8.29317 13.6578 
11738 0 5 21.025 10.9271 14.4473 
5665 0 5 20.9627 8.9916 25.6181 
20935 0 5 20.8744 10.0416 25.3934 
4347 0 5 21.1108 6.94335 27.0777 
26670 0 5 19.5889 8.65555 26.8574 
15642 0 5 21.6123 8.94536 26.3664 
18681 0 5 18.6011 6.56661 30.4212 
166 0 5 18.1077 10.7893 32.7769 
10236 0 5 19.4814 12.4765 1.51294 
15949 0 5 17.3329 14.0205 2.19995 
5352 0 5 22.0891 14.8738 1.63899 
13284 0 5 19.3911 12.8647 2.52663 
13329 0 5 20.5744 14.0501 2.83059 
24358 0 5 22.179 14.0264 5.50844 
25152 0 5 18.142 14.8313 6.66224 
22135 0 5 21.9469 16.1674 7.01142 
19305 0 5 17.1386 12.5822 11.4227 
25270 0 5 18.9052 13.0946 9.79307 
21889 0 5 21.7883 15.7266 12.3458 
8564 0 5 21.1676 12.7965 13.4944 
15696 0 5 21.2 15.7048 14.2572 
9823 0 5 21.371 15.0292 15.8793 
4649 0 5 21.5577 16.5579 17.5575 
22050 0 5 17.8433 11.5453 19.9102 
2916 0 5 21.3593 16.1645 18.7725 
16323 0 5 21.6031 13.9976 21.9115 
26434 0 5 17.9353 16.2 20.8457 
14141 0 5 21.4474 13.1273 24.456 
26186 0 5 21.0941 15.2462 25.4601 
7622 0 5 19.5445 15.9454 26.9803 
26900 0 5 17.1092 13.6466 30.6914 
13261 0 5 17.4186 15.4581 29.7129 
15402 0 5 17.3397 14.1798 32.3618 
25351 0 5 16.9598 15.1185 32.6504 
21057 0 5 19.6656 15.1253 31.406 
13765 0 5 17.0655 17.5661 1.24315 
22915 0 5 18.9651 19.2286 1.29023 
26871 0 5 18.374 20.4073 2.59763 
11241 0 5 17.8623 21.8228 2.58731 
20444 0 5 21.0169 17.3853 5.22626 
13534 0 5 19.0858 19.46 5.78942 
22232 0 5 20.6578 17.2164 6.31392 
5239 0 5 17.423 21.0483 7.4465 
18453 0 5 16.9169 22.2131 9.38516 
15871 0 5 21.3772 20.8232 8.20057 
13908 0 5 20.6814 20.9275 10.9811 
16600 0 5 19.0767 18.4971 13.6374 
25262 0 5 20.9156 21.9145 16.8807 
14786 0 5 19.0403 22.2548 18.3818 
8939 0 5 19.6986 21.1048 19.8005 
21182 0 5 19.8996 18.3796 22.1489 
25782 0 5 19.314 19.2078 21.9002 
9727 0 5 21.2465 19.9736 22.14 
20849 0 5 20.9669 19.8907 20.8586 
4514 0 5 19.2674 18.3591 26.0001 
16948 0 5 17.0446 19.0354 25.9802 
20249 0 5 22.2712 19.3253 30.3178 
26878 0 5 21.7549 20.9455 31.052 
8476 0 5 17.4949 20.3156 32.1182 
15274 0 5 19.7099 19.7709 31.586 
14334 0 5 22.2241 19.5968 32.2376 
23965 0 5 20.187 26.8587 4.21223 
4538 0 5 18.0665 22.48 6.42378 
1891 0 5 17.3057 24.1677 9.24407 
4668 0 5 18.0994 24.8253 9.68686 
21595 0 5 20.6873 24.5662 9.18411 
2065 0 5 21.825 24.2241 10.6729 
3158 0 5 17.6569 23.5073 12.1435 
7339 0 5 19.3126 26.6128 12.4336 
21461 0 5 21.4035 22.2957 13.7236 
19080 0 5 17.4601 26.6162 21.7415 
3191 0 5 19.1582 26.4867 21.0641 
14926 0 5 20.4109 23.6579 23.207 
1701 0 5 20.6385 22.7125 23.7031 
22447 0 5 22.0221 26.3979 24.083 
16270 0 5 20.31 24.5813 31.4974 
22370 0 5 19.4 28.9217 1.77572 
12391 0 5 17.5315 31.8487 0.984114 
24755 0 5 22.1769 28.6784 4.26719 
16665 0 5 20.3776 30.1332 3.52201 
18994 0 5 17.0542 31.8457 5.86532 
20704 0 5 22.1028 32.1388 5.18067 
5470 0 5 17.7687 31.2058 8.36443 
8533 0 5 19.7704 30.7585 8.10583 
21645 0 5 16.9278 32.0223 9.71219 
9320 0 5 17.8807 32.0066 10.6667 
3172 0 5 17.8096 29.338 13.8533 
18489 0 5 21.5774 29.5594 14.3953 
3951 0 5 21.1281 28.4724 18.2175 
22224 0 5 18.6123 28.5485 18.9955 
11432 0 5 19.1907 32.5121 20.4663 
13985 0 5 19.6188 30.2425 21.7565 
13454 0 5 17.2532 32.5262 22.0728 
2619 0 5 17.4689 28.9319 22.3237 
12748 0 5 17.2015 29.1994 25.4375 
20723 0 5 17.1589 30.8349 26.295 
16291 0 5 17.9017 29.8505 26.0818 
3224 0 5 19.9477 28.8122 31.0502 
13088 0 5 20.8315 30.2454 30.7886 
17326 0 5 17.1118 31.0411 31.5937 
13200 0 5 19.742 31.0538 31.7977 
19408 0 5 21.1078 30.0915 31.8737 
8828 0 5 22.1025 29.6895 31.3243 
20693 0 5 22.7231 4.06469 1.49 
409 0 5 25.2896 0.787204 3.48925 
19865 0 5 24.5946 4.04093 3.77065 
25050 0 5 22.6119 5.19304 3.10118 
22041 0 5 23.0684 5.15652 4.21728 
12009 0 5 22.6411 3.67882 4.77644 
14741 0 5 23.7718 4.46322 4.32232 
2755 0 5 24.6491 5.23257 5.41329 
2097 0 5 23.6413 1.17429 7.19887 
20605 0 5 23.2232 3.47832 7.28606 
1582 0 5 23.6074 5.43369 7.59628 
11688 0 5 24.1986 4.03563 9.36277 
25591 0 5 25.2489 5.59821 12.9755 
10146 0 5 25.9066 0.753913 13.4815 
15118 0 5 24.4046 1.74312 15.3779 
6574 0 5 26.6003 1.53718 15.5038 
25787 0 5 26.4914 1.37926 17.2831 
9065 0 5 22.9397 2.91816 17.3679 
15392 0 5 24.2773 2.9851 18.0447 
26839 0 5 24.8106 3.35567 17.0029 
21288 0 5 25.5347 5.07776 17.5974 
15559 0 5 27.1566 4.42493 18.1671 
23995 0 5 24.8982 3.79259 19.6321 
6236 0 5 22.4215 3.88643 21.3874 
7681 0 5 25.8696 4.00446 20.5603 
15726 0 5 25.4065 5.20292 21.8117 
26700 0 5 24.9308 0.964452 22.3659 
8222 0 5 25.2181 6.10069 22.3616 
10008 0 5 25.4792 5.60018 23.5178 
26178 0 5 24.2796 4.59712 23.8712 
17860 0 5 25.5821 1.0951 24.8876 
19279 0 5 23.5581 4.45874 26.0721 
22334 0 5 26.1134 1.04594 28.2716 
16753 0 5 26.4304 4.47797 27.7876 
14968 0 5 27.4523 5.8054 29.8169 
15276 0 5 24.8329 3.57902 32.1341 
2183 0 5 27.1832 5.43187 32.8766 
25597 0 5 22.3148 8.22397 2.05535 
4819 0 5 23.5363 8.28807 2.31584 
23789 0 5 23.1486 9.31412 7.1472 
15229 0 5 26.9252 6.8108 8.43115 
13149 0 5 23.5236 7.18223 10.5992 
15388 0 5 25.5793 9.19111 11.0994 
8324 0 5 25.8893 11.3349 11.1996 
3211 0 5 25.5731 7.62231 12.9188 
4912 0 5 26.4304 9.51709 13.0965 
24882 0 5 25.1137 8.02558 16.5982 
11247 0 5 23.2779 11.4392 16.127 
17198 0 5 26.2198 7.74129 17.3752 
11702 0 5 26.6363 8.49288 18.1516 
17349 0 5 27.0947 7.26173 19.0464 
9535 0 5 25.6686 6.56701 21.2353 
22183 0 5 23.6441 6.89848 23.8457 
21192 0 5 25.5315 8.99044 23.1314 
4799 0 5 26.5754 6.22397 24.7275 
23166 0 5 25.4312 10.8189 26.6088 
12418 0 5 24.5766 6.99226 28.2668 
14730 0 5 25.8853 10.1532 29.4619 
138 0 5 24.2539 8.90505 30.6891 
13452 0 5 27.177 9.06904 30.6886 
4455 0 5 23.016 11.136 30.6777 
8834 0 5 22.6386 11.5691 1.38844 
12182 0 5 26.2026 13.0604 1.90891 
19955 0 5 24.8874 13.7476 2.26165 
1530 0 5 27.2294 13.8682 1.32255 
20851 0 5 27.0442 12.5805 4.08391 
5070 0 5 25.1227 13.8189 4.23006 
1121 0 5 27.213 14.832 4.0924 
9064 0 5 24.4955 16.4248 2.61909 
6834 0 5 24.0952 15.4024 3.76413 
5955 0 5 26.1189 12.5191 4.87008 
7584 0 5 22.5835 14.9313 5.53328 
5659 0 5 23.3325 13.8358 5.65109 
8203 0 5 25.3469 15.5078 5.58697 
4202 0 5 26.3192 16.163 6.0735 
8714 0 5 27.1835 12.8335 7.17174 
16729 0 5 26.477 13.592 7.14824 
1532 0 5 23.8773 13.9691 8.88113 
20598 0 5 24.9554 13.5235 8.83086 
3598 0 5 26.5181 15.971 10.7439 
1730 0 5 25.1012 13.973 11.8944 
496 0 5 25.6841 13.1685 14.1935 
4099 0 5 23.6766 13.4901 13.9493 
19956 0 5 23.4739 16.3181 16.6625 
4016 0 5 23.925 14.3135 17.1555 
5492 0 5 25.8806 14.8169 17.0495 
3093 0 5 25.8807 13.1607 21.1412 
7318 0 5 25.6538 13.409 23.3232 
24273 0 5 25.6212 14.1338 25.4053 
14131 0 5 23.1309 14.9712 26.0832 
16449 0 5 23.1746 13.1655 29.0852 
15437 0 5 24.8863 12.2876 28.4304 
2911 0 5 23.8304 15.0049 30.6072 
20933 0 5 23.1377 14.7788 32.1026 
23678 0 5 27.2425 17.014 3.13832 
11097 0 5 27.3098 16.8985 4.25455 
117 0 5 27.4972 18.4253 6.34746 
9186 0 5 22.7994 22.1953 7.39012 
80 0 5 23.965 18.455 9.81414 
19234 0 5 27.0878 17.1675 10.6424 
11957 0 5 27.1721 19.0071 10.0924 
16143 0 5 26.3434 17.4639 13.1958 
12816 0 5 26.1966 19.1302 19.3469 
8202 0 5 24.0632 17.9726 22.1267 
1515 0 5 25.8979 17.6257 21.7411 
14679 0 5 26.8101 20.0819 22.9443 
23496 0 5 24.1765 22.1352 22.8274 
2292 0 5 27.4479 21.6803 23.5264 
19292 0 5 24.0316 18.054 24.3745 
18290 0 5 25.7768 19.9928 25.058 
5173 0 5 26.5973 16.9492 26.6375 
19842 0 5 22.8003 20.3515 27.0214 
6117 0 5 27.2711 21.8775 26.9789 
16626 0 5 24.6815 17.33 29.002 
14262 0 5 25.2635 19.9581 28.9184 
897 0 5 27.2114 18.8815 29.3398 
10111 0 5 24.1463 22.25 28.6276 
11083 0 5 23.4805 18.2677 32.8274 
11392 0 5 25.7789 17.4472 32.7156 
12562 0 5 22.4756 20.7309 32.0441 
25788 0 5 23.9044 24.5133 0.80872 
4774 0 5 26.6905 27.0179 2.37113 
21663 0 5 26.7433 23.0896 6.68647 
14220 0 5 25.4882 27.4133 6.55629 
3179 0 5 25.3608 25.2285 8.66111 
15934 0 5 23.2742 27.2897 8.02949 
6288 0 5 22.8102 24.6465 11.0842 
12899 0 5 27.4931 27.4242 11.2616 
17746 0 5 23.3774 22.991 11.6248 
14171 0 5 23.2406 27.5411 14.9481 
24362 0 5 22.7057 25.2394 16.1035 
9612 0 5 26.5328 27.3447 16.728 
21122 0 5 26.8633 23.6798 17.0532 
24910 0 5 24.0411 24.5759 18.649 
7202 0 5 22.8348 22.9915 20.3621 
1785 0 5 22.7532 26.3854 19.9047 
9323 0 5 27.0835 26.9656 20.1498 
2166 0 5 22.53 23.8155 20.8698 
8790 0 5 26.3736 25.993 20.8509 
8617 0 5 26.6647 23.2731 22.501 
2712 0 5 23.0869 24.9758 23.5106 
23109 0 5 23.8301 24.3115 22.8187 
25282 0 5 25.1951 25.883 23.7356 
15299 0 5 26.3255 22.6462 24.7702 
17704 0 5 27.3629 23.426 25.6752 
1158 0 5 26.7585 26.7544 25.0783 
12513 0 5 26.8489 25.5801 29.9961 
24590 0 5 25.0217 24.414 31.4578 
16838 0 5 24.6646 26.8156 32.3032 
25852 0 5 24.863 32.5489 2.49217 
18945 0 5 27.4554 30.0768 3.21953 
19613 0 5 22.5876 29.2043 5.10092 
24310 0 5 24.2874 31.1424 4.52167 
21139 0 5 27.3148 32.5611 5.03327 
26893 0 5 22.5148 31.4829 7.0267 
8590 0 5 24.6743 32.0326 7.6232 
4420 0 5 25.8618 30.4299 10.8143 
4613 0 5 24.6068 30.8545 11.2944 
25353 0 5 27.1764 29.8869 10.0307 
3824 0 5 27.0429 32.9969 10.7511 
6036 0 5 23.3077 32.2343 13.4338 
2343 0 5 24.0703 27.7765 16.7627 
21373 0 5 25.9543 28.4876 16.6811 
15877 0 5 27.17 29.976 16.7286 
16786 0 5 24.984 27.9937 17.0793 
14637 0 5 23.9454 30.5351 17.6448 
20161 0 5 24.9229 30.3372 18.5418 
16127 0 5 24.1107 33.0108 19.5072 
1763 0 5 27.4483 29.4276 22.0324 
3272 0 5 27.1894 29.5484 21.0927 
21872 0 5 25.2653 32.7673 21.5029 
3709 0 5 24.488 32.4742 22.9922 
26535 0 5 23.3604 30.0969 24.7235 
1122 0 5 24.5563 27.7456 30.5717 
6241 0 5 30.4937 5.43542 1.6213 
22463 0 5 31.8425 0.922529 4.16583 
23007 0 5 31.8732 3.94415 4.30505 
10279 0 5 29.7544 4.7508 3.75973 
25220 0 5 30.2718 0.975005 5.80407 
17917 0 5 30.5961 3.04236 5.93098 
12576 0 5 32.4069 1.81607 9.15189 
26437 0 5 31.7271 1.11014 8.73009 
8336 0 5 32.4263 0.811909 9.624 
343 0 5 30.8019 3.84748 7.94621 
19337 0 5 32.5052 2.95516 9.11603 
19070 0 5 28.7858 1.06056 11.749 
20457 0 5 32.1381 1.68755 12.87 
23548 0 5 32.8767 3.19933 12.7564 
17747 0 5 32.1614 1.59856 14.2171 
14239 0 5 29.084 5.02634 14.2362 
235 0 5 28.2429 2.07994 16.788 
5449 0 5 32.9787 1.64854 17.9597 
3617 0 5 29.5213 4.86957 17.5422 
17093 0 5 28.6891 0.913827 22.944 
17851 0 5 31.9699 2.39594 22.7373 
12440 0 5 28.0168 5.9311 23.3191 
20873 0 5 28.9024 5.66 23.99 
3605 0 5 30.4722 5.67363 23.3111 
1583 0 5 32.8683 2.78006 24.3596 
23016 0 5 32.0751 3.67404 25.275 
22274 0 5 32.0077 5.9772 24.9297 
7497 0 5 30.3689 1.56993 26.4395 
16837 0 5 29.5986 2.61778 26.0325 
6413 0 5 31.7511 2.81749 26.1213 
618 0 5 32.4266 3.92301 31.018 
20286 0 5 28.184 5.16274 30.2042 
2956 0 5 32.5806 2.9396 31.2913 
8434 0 5 29.2423 5.40032 32.471 
1324 0 5 31.1935 5.25572 32.1569 
13951 0 5 28.0482 8.78003 1.01235 
24365 0 5 30.9142 10.4724 2.25128 
19462 0 5 29.7077 7.91873 3.5543 
9257 0 5 30.6637 9.56291 2.76988 
15297 0 5 28.681 7.70981 4.36656 
26035 0 5 30.6647 6.74871 5.76251 
3194 0 5 32.7535 6.48238 6.91558 
11776 0 5 29.1817 8.91446 9.25497 
16671 0 5 31.4475 11.2879 9.82439 
8615 0 5 28.2632 6.6616 11.5869 
19936 0 5 27.959 6.6098 13.113 
12866 0 5 28.8778 6.11905 12.3524 
25548 0 5 30.3782 8.92341 11.9112 
1786 0 5 31.3213 10.6944 13.243 
9307 0 5 31.1017 9.83297 15.856 
2385 0 5 31.7029 10.5444 16.2785 
2790 0 5 28.3351 7.38424 18.3778 
23015 0 5 31.9887 11.0639 21.8346 
18568 0 5 29.2188 9.18813 22.8436 
25744 0 5 30.933 8.59767 23.7358 
6849 0 5 33.0338 6.90747 24.6997 
26135 0 5 30.3847 8.05952 24.5122 
22802 0 5 28.346 9.77854 29.2572 
3424 0 5 32.6538 11.4015 30.7591 
11802 0 5 30.2456 10.8 31.5652 
11858 0 5 30.9888 12.2295 1.08789 
24620 0 5 32.4014 11.9205 1.68414 
24085 0 5 27.9278 13.3264 1.96531 
25960 0 5 31.8717 13.6283 3.1362 
13455 0 5 31.0869 14.3524 5.85874 
4771 0 5 31.2147 14.0873 7.67333 
24247 0 5 27.8437 16.6933 7.18637 
6661 0 5 32.0446 12.0394 9.10987 
10677 0 5 30.5502 14.2475 13.1137 
3919 0 5 33.0354 15.1385 13.1674 
2287 0 5 30.9136 11.5536 14.229 
365 0 5 32.6678 13.2549 14.3474 
13676 0 5 27.8741 15.3492 16.651 
14259 0 5 28.4229 16.0008 15.9522 
8464 0 5 30.1807 16.5888 15.562 
10124 0 5 30.9887 12.4264 18.3587 
10428 0 5 31.0659 15.1903 19.0532 
2298 0 5 32.1183 13.2662 21.8627 
11972 0 5 30.4454 14.261 21.0998 
7144 0 5 32.9499 14.9059 21.1642 
14963 0 5 29.3216 11.769 25.1721 
8420 0 5 28.5061 16.8347 25.38 
23395 0 5 31.3253 15.8804 27.4574 
17025 0 5 29.482 13.8384 30.4663 
6822 0 5 28.9513 15.6867 30.5154 