ITEM: TIMESTEP
7000000
ITEM: NUMBER OF ATOMS
475
ITEM: BOX BOUNDS pp pp pp
7.1354277009520928e-01 3.3076457229894366e+01
7.1354277009520928e-01 3.3076457229894366e+01
7.1354277009520928e-01 3.3076457229894366e+01
ITEM: ATOMS id mol type x y z 
27440 324 4 5.87685 1.24198 5.09785 
27447 324 4 4.95037 0.928598 5.30644 
27445 324 4 5.97457 1.99066 6.65675 
27446 324 4 5.25504 1.44482 6.15058 
27297 316 4 4.16916 5.85947 15.1079 
27296 316 4 4.60414 5.51464 15.9819 
27294 316 4 4.28505 5.81264 17.9337 
27295 316 4 4.64656 5.4975 17.0162 
27263 314 4 1.08938 7.6219 3.21513 
27187 310 4 1.06642 7.62768 3.16974 
27264 314 4 0.888048 6.66342 3.55078 
27186 310 4 0.873137 6.67067 3.51421 
27262 314 4 0.788979 8.60149 3.06662 
27188 310 4 0.762038 8.60629 3.02295 
27298 316 4 3.45815 6.4396 14.6285 
27299 316 4 2.66165 7.09957 14.6721 
27429 323 4 5.23749 7.53883 14.9322 
27373 320 4 5.22092 7.51582 14.9587 
27372 320 4 4.41502 8.16574 14.9562 
27430 323 4 4.42724 8.18312 14.9484 
27300 316 4 1.99307 7.66255 15.227 
27291 316 4 2.38531 7.35765 16.3625 
27289 316 4 3.65411 6.29853 15.8441 
27286 316 4 3.13906 6.7376 16.5804 
27290 316 4 2.90036 6.91858 15.6263 
27288 316 4 3.89281 6.11755 16.7983 
27374 320 4 5.92567 6.96341 15.4783 
27428 323 4 5.94685 6.97753 15.4358 
27421 323 4 5.40391 7.41304 16.1539 
27365 320 4 5.03216 7.69779 15.9237 
27366 320 4 5.59191 7.26815 16.6324 
27419 323 4 4.86097 7.84855 16.872 
27362 320 4 4.8434 7.87977 16.8888 
27301 316 4 1.63155 7.9777 16.1446 
27423 323 4 4.10116 8.45135 16.6283 
27364 320 4 4.28366 8.3094 16.1801 
27371 320 4 3.72391 8.73904 15.4715 
27431 323 4 3.7332 8.73777 15.48 
27370 320 4 3.33276 9.0821 16.3666 
27432 323 4 3.34135 9.05415 16.3845 
27422 323 4 4.6441 8.01584 15.9102 
27303 316 4 2.10896 7.61572 18.0528 
27292 316 4 2.62401 7.17666 17.3166 
27304 316 4 2.81997 7.0356 18.5322 
27287 316 4 3.37776 6.55661 17.5345 
27293 316 4 3.61647 6.37563 18.4886 
27425 323 4 5.07784 7.68127 17.8338 
27367 320 4 5.40315 7.45013 17.5974 
27420 323 4 5.62078 7.24576 17.1157 
27377 320 4 5.9629 7.02049 18.3061 
27437 323 4 5.98874 6.95934 18.264 
27302 316 4 1.67398 7.96056 17.1789 
27369 320 4 3.34639 9.10299 17.4016 
27433 323 4 3.35668 9.04749 17.4197 
27363 320 4 4.0949 8.49138 17.1452 
27380 320 4 3.76114 8.79612 18.2992 
27434 323 4 3.77508 8.71958 18.3081 
27368 320 4 4.65465 8.06174 17.8538 
27424 323 4 4.31803 8.28407 17.5901 
27436 323 4 5.2947 7.51398 18.7956 
27378 320 4 5.27179 7.59379 18.8214 
27379 320 4 4.46589 8.24372 18.8189 
27435 323 4 4.48445 8.15828 18.8117 
27240 313 4 5.51788 26.4848 0.838053 
27239 313 4 5.52575 25.9997 1.75265 
27126 307 4 5.56144 25.9746 1.82775 
27125 307 4 5.52834 26.4408 0.90397 
27238 313 4 5.91123 25.8927 2.70756 
27127 307 4 5.96633 25.8934 2.77715 
27335 318 4 1.32308 23.8643 27.1766 
27334 318 4 1.15106 22.9428 27.6161 
27336 318 4 1.06833 24.8601 27.0526 
27241 313 4 5.88971 27.218 32.5717 
27124 307 4 5.87591 27.1673 32.6163 
27449 324 4 5.77912 32.8562 3.53895 
27448 324 4 5.1422 32.9432 4.35052 
27451 324 4 7.63208 1.12007 3.12178 
27441 324 4 6.29122 1.02434 4.21411 
27442 324 4 7.2177 1.33772 4.00552 
27452 324 4 8.35161 1.66592 3.62795 
27439 324 4 6.38895 1.77301 5.77301 
27438 324 4 6.80333 1.55537 4.88927 
27443 324 4 7.7298 1.86875 4.68068 
27444 324 4 7.31543 2.0864 5.56442 
27453 324 4 8.65628 2.18214 4.47209 
27454 324 4 8.46446 2.53042 5.42802 
27456 324 4 6.91617 2.41987 6.68933 
27455 324 4 7.82753 2.61743 6.23958 
27427 323 4 6.36526 6.64962 16.3243 
27375 320 4 6.34042 6.65654 16.3759 
27426 323 4 6.38059 6.64296 17.3595 
27376 320 4 6.35405 6.67743 17.411 
27038 302 4 9.7718 11.0614 21.7484 
27089 305 4 9.75825 11.0917 21.7643 
27021 302 4 9.23924 11.4209 22.8082 
27081 305 4 9.24998 11.445 22.838 
27027 302 4 9.57165 10.5018 22.5961 
27090 305 4 9.58224 10.5285 22.615 
27028 302 4 9.19336 10.4348 23.5575 
27091 305 4 9.22817 10.4565 23.5852 
27029 302 4 8.7383 10.8782 24.375 
27092 305 4 8.79091 10.8949 24.415 
27036 302 4 9.48526 12.9666 21.2111 
27087 305 4 9.4478 12.9967 21.24 
27080 305 4 9.31338 12.1783 22.1609 
27026 302 4 9.3235 12.1517 22.1308 
27037 302 4 9.74017 11.9636 21.2414 
27088 305 4 9.70904 11.9951 21.261 
27086 305 4 9.04453 13.8281 21.7069 
27035 302 4 9.07535 13.8016 21.6655 
27078 305 4 8.58546 13.278 23.2839 
27025 302 4 8.99108 13.0708 22.3429 
27079 305 4 8.98112 13.0948 22.3839 
27020 302 4 8.90682 12.3399 23.0202 
27077 305 4 8.91772 12.3615 23.0609 
27024 302 4 8.57441 13.2589 23.2323 
27023 302 4 8.49015 12.528 23.9097 
27083 305 4 8.52206 12.5447 23.9609 
27022 302 4 8.82256 11.609 23.6976 
27082 305 4 8.85432 11.6282 23.7379 
27084 305 4 8.2532 14.1945 23.5069 
27033 302 4 8.242 14.1779 23.4444 
27085 305 4 8.60727 14.2665 22.5366 
27034 302 4 8.62028 14.245 22.483 
27031 302 4 8.07347 12.7162 24.7991 
27094 305 4 8.1264 12.7279 24.8609 
27030 302 4 8.32839 11.7132 24.8294 
27093 305 4 8.38764 11.7263 24.8819 
27032 302 4 8.04185 13.6184 24.2921 
27095 305 4 8.07719 13.6313 24.3576 
27219 312 4 11.2959 12.4079 26.6636 
27277 315 4 11.4278 12.369 26.6482 
27220 312 4 10.4889 12.982 26.9653 
27276 315 4 10.5944 12.8834 26.984 
27214 312 4 11.1284 15.0266 26.3243 
27274 315 4 10.0094 14.7959 26.9629 
27222 312 4 10.0249 14.9256 26.8793 
27221 312 4 10.0236 13.9035 27.0443 
27275 315 4 10.0753 13.7717 27.0992 
27213 312 4 10.8941 14.0911 26.5891 
27268 315 4 10.8883 14.5374 26.5618 
27269 315 4 11.1808 13.5811 26.5723 
27223 312 4 10.4923 15.7744 26.5146 
27224 312 4 11.3006 16.2224 26.0479 
27285 315 4 10.4145 15.6815 26.6117 
27273 315 4 11.4746 15.2351 26.1501 
27284 315 4 11.1821 16.1914 26.1396 
27117 307 4 6.41244 27.2896 1.08836 
27229 313 4 6.93498 27.411 1.9031 
27231 313 4 6.4231 26.6518 2.30533 
27118 307 4 6.25521 26.6932 1.87556 
27232 313 4 6.22643 26.9479 1.37057 
27115 307 4 6.94898 27.4119 1.92338 
27236 313 4 7.32833 26.8189 3.7726 
27120 307 4 7.48552 27.5342 2.75839 
27128 307 4 6.63452 26.2191 3.49778 
27129 307 4 7.38697 26.8644 3.79655 
27119 307 4 6.79175 26.8155 2.71058 
27230 313 4 7.13166 27.1149 2.83785 
27237 313 4 6.57102 26.1926 3.44691 
27130 307 4 8.02206 27.6564 3.59341 
27247 313 4 7.98025 27.6039 3.59736 
27121 307 4 7.64275 28.1305 1.97119 
27234 313 4 7.44685 28.1701 1.50086 
27116 307 4 7.10621 28.0083 1.13617 
27233 313 4 6.7383 27.707 0.968342 
27235 313 4 7.64353 27.874 2.43562 
27133 307 4 7.93163 28.9304 1.0696 
27244 313 4 7.95873 28.9292 1.09863 
27132 307 4 8.33652 28.8492 2.019 
27245 313 4 8.34421 28.8223 2.05354 
27246 313 4 8.35208 28.3371 2.96814 
27131 307 4 8.36962 28.3829 2.94278 
27450 324 4 6.69048 33.0538 3.0892 
27123 307 4 6.511 27.9593 32.4131 
27243 313 4 7.29894 28.6293 32.7222 
27122 307 4 7.26345 28.6046 32.7119 
27242 313 4 6.54163 28.003 32.3965 
27066 304 4 14.7343 11.3698 31.622 
27279 315 4 13.1197 12.8762 25.7097 
27217 312 4 13.0368 12.7832 25.7533 
27216 312 4 12.635 14.4665 25.6788 
27272 315 4 12.3534 14.9766 25.749 
27271 315 4 12.6459 14.0204 25.7596 
27280 315 4 13.5248 13.7619 25.3584 
27228 312 4 13.5042 13.632 25.3886 
27281 315 4 13.4589 14.786 25.2221 
27227 312 4 13.5055 14.6541 25.2236 
27283 315 4 12.1063 16.1887 25.6731 
27225 312 4 12.2332 16.1497 25.6043 
27226 312 4 13.0402 15.5756 25.3026 
27282 315 4 12.9397 15.6743 25.3373 
27215 312 4 11.9989 15.2142 25.8691 
27278 315 4 12.3521 12.3664 26.1818 
27218 312 4 12.2286 12.3352 26.22 
27212 312 4 11.5302 13.3434 26.3988 
27270 315 4 12.0596 13.3226 26.1712 
27211 312 4 12.4007 13.531 25.9436 
27267 315 4 11.7671 14.2789 26.1607 
27210 312 4 11.7646 14.2788 26.134 
27076 304 4 12.9414 12.2322 31.8279 
27075 304 4 12.6086 13.1703 32.1124 
27065 304 4 13.7194 11.5731 31.6484 
27059 304 4 14.1613 12.4236 31.9341 
27064 304 4 13.6059 13.2222 32.1661 
27058 304 4 14.6031 13.274 32.2198 
27060 304 4 15.1585 12.4754 31.9878 
27067 304 4 15.7139 11.6768 31.7558 
27068 304 4 16.396 12.4117 32.014 
27074 304 4 12.8102 14.1363 32.4257 
27073 304 4 13.4923 14.8712 32.6838 
27062 304 4 15.0449 14.1244 32.5055 
27063 304 4 14.0477 14.0726 32.4518 
27071 304 4 15.4868 14.9749 32.7912 
27070 304 4 16.2648 14.3158 32.6118 
27061 304 4 15.6004 13.3258 32.2735 
27069 304 4 16.5976 13.3776 32.3273 
27072 304 4 14.472 15.1781 32.8176 
27395 321 4 13.287 28.7989 5.25554 
27160 309 4 13.2894 28.8374 5.26746 
27171 309 4 12.3512 29.2192 5.48146 
27394 321 4 12.344 29.1805 5.44819 
27161 309 4 14.3207 28.9054 5.32954 
27396 321 4 14.3165 28.8676 5.34048 
27397 321 4 15.1568 29.368 5.68026 
27162 309 4 15.1685 29.405 5.65107 
27159 309 4 12.6968 30.2323 6.10602 
27393 321 4 11.7403 29.9099 5.86682 
27385 321 4 12.977 29.8297 5.86987 
27170 309 4 11.7573 29.9485 5.91421 
27154 309 4 13.4629 29.6768 5.78264 
27386 321 4 13.9633 29.6733 5.81601 
27155 309 4 14.4024 29.9606 5.97445 
27158 309 4 12.8703 31.0717 6.6212 
27392 321 4 11.6375 30.7919 6.39926 
27384 321 4 12.6238 30.6355 6.3454 
27169 309 4 11.6669 30.8299 6.44974 
27382 321 4 14.2431 31.1283 6.71322 
27387 321 4 14.5963 30.3226 6.23769 
27156 309 4 14.5759 30.8 6.48963 
27153 309 4 13.6364 30.5162 6.29782 
27381 321 4 13.61 30.479 6.29154 
27163 309 4 15.6058 30.2024 6.1459 
27399 321 4 15.4798 31.0481 6.71626 
27164 309 4 15.5155 31.0838 6.68143 
27398 321 4 15.5826 30.1661 6.18383 
27383 321 4 13.2568 31.2847 6.76708 
27168 309 4 12.1042 31.6273 6.94457 
27391 321 4 12.0633 31.59 6.90283 
27390 321 4 12.9036 32.0904 7.24261 
27167 309 4 12.9521 32.1269 7.2661 
27157 309 4 13.8099 31.3556 6.813 
27388 321 4 14.8761 31.7775 7.1349 
27165 309 4 14.9216 31.8132 7.11418 
27166 309 4 13.9833 32.195 7.32818 
27389 321 4 13.9331 32.1591 7.32755 
27145 308 4 12.2399 31.3076 27.5991 
27146 308 4 12.8845 31.9486 27.1036 
27147 308 4 13.7368 32.5363 27.0993 
27148 308 4 14.5684 32.9134 27.5872 
27144 308 4 11.9758 30.785 28.453 
27143 308 4 12.1629 30.521 29.4365 
27136 308 4 12.9113 31.1354 29.1865 
27137 308 4 12.9498 31.5287 28.2679 
27138 308 4 13.6982 32.1431 28.0179 
27134 308 4 13.6597 31.7498 28.9366 
27139 308 4 14.4082 32.3642 28.6867 
27149 308 4 15.1566 32.9786 28.4367 
27150 308 4 15.3437 32.7146 29.4202 
27142 308 4 12.7511 30.5863 30.286 
27141 308 4 13.5827 30.9633 30.7739 
27140 308 4 14.3696 31.971 29.6053 
27135 308 4 13.6212 31.3566 29.8553 
27151 308 4 15.0796 32.1921 30.2741 
27152 308 4 14.435 31.5511 30.7696 
27354 319 4 20.8827 5.15406 22.1717 
27415 322 4 20.8915 5.15904 22.1243 
27355 319 4 20.508 6.02347 21.7526 
27416 322 4 20.5415 6.05337 21.7376 
27405 322 4 20.9095 5.79822 22.8932 
27346 319 4 20.8843 5.82184 22.9161 
27404 322 4 21.2257 5.49161 23.7911 
27353 319 4 21.2582 4.64251 22.9897 
27414 322 4 21.2511 4.60724 22.9232 
27345 319 4 21.21 5.55775 23.824 
27352 319 4 21.534 4.62589 23.9875 
27413 322 4 21.5239 4.54583 23.92 
27411 322 4 21.5599 5.82419 25.4578 
27350 319 4 21.5374 5.96145 25.4763 
27351 319 4 21.6362 5.10865 24.8977 
27412 322 4 21.637 4.99127 24.8477 
27356 319 4 20.2346 7.01779 21.8448 
27417 322 4 20.295 7.05061 21.8665 
27461 325 4 22.2556 9.47845 21.6719 
27044 303 4 22.2651 9.48639 21.6646 
27469 325 4 21.7685 8.34772 21.814 
27053 303 4 21.7637 8.36095 21.7989 
27054 303 4 21.4496 9.14354 21.1982 
27470 325 4 21.4423 9.12339 21.2108 
27472 325 4 22.0681 10.9867 20.8411 
27056 303 4 22.0994 11.001 20.8407 
27471 325 4 21.552 10.0893 20.8547 
27055 303 4 21.5724 10.1099 20.8475 
27357 319 4 20.1358 7.87058 22.4234 
27418 322 4 20.2179 7.88353 22.4766 
27343 319 4 20.886 6.48962 23.6605 
27400 322 4 20.9275 6.4374 23.6621 
27347 319 4 20.5603 6.7537 22.7527 
27406 322 4 20.6112 6.744 22.7643 
27401 322 4 20.6292 7.38318 23.5332 
27348 319 4 20.562 7.42148 23.4971 
27358 319 4 20.238 8.35335 23.3336 
27407 322 4 20.331 8.32897 23.4043 
27349 319 4 20.8877 7.1574 24.405 
27402 322 4 20.9454 7.07658 24.431 
27360 319 4 20.8894 7.82518 25.1494 
27409 322 4 20.9634 7.71576 25.1999 
27361 319 4 21.264 6.95576 25.5685 
27410 322 4 21.3134 6.82143 25.5867 
27344 319 4 21.2117 6.22553 24.5684 
27403 322 4 21.2437 6.1308 24.56 
27408 322 4 20.6038 8.26756 24.4011 
27359 319 4 20.5138 8.33673 24.3313 
27106 306 4 21.8013 16.9701 5.87176 
27108 306 4 21.9189 18.2435 7.40961 
27107 306 4 21.6091 17.6877 6.59291 
27045 303 4 22.59 10.4151 21.4858 
27457 325 4 23.0688 9.83351 22.133 
27039 303 4 23.0806 9.82923 22.1309 
27040 303 4 23.4056 10.758 21.9521 
27463 325 4 23.3817 10.7652 21.9482 
27462 325 4 22.5685 10.4101 21.4871 
27460 325 4 22.7559 8.90184 22.3178 
27051 303 4 23.2719 8.08031 23.0822 
27467 325 4 23.2853 8.0919 23.0923 
27459 325 4 23.5692 9.2569 22.779 
27042 303 4 23.5712 9.24335 22.776 
27466 325 4 24.0695 8.68029 23.4249 
27050 303 4 24.0618 8.65747 23.4211 
27052 303 4 22.4307 7.97178 22.4884 
27468 325 4 22.443 7.97017 22.5027 
27043 303 4 22.7557 8.90051 22.3097 
27049 303 4 24.5888 9.5486 23.4142 
27465 325 4 24.5856 9.57769 23.4114 
27458 325 4 23.8821 10.1886 22.5941 
27041 303 4 23.8961 10.1721 22.5972 
27048 303 4 24.7117 10.5149 23.0635 
27464 325 4 24.6953 10.5436 23.0553 
27475 325 4 24.3692 11.3193 22.452 
27047 303 4 24.3975 11.2975 22.4629 
27104 306 4 23.3647 15.8106 5.41172 
27105 306 4 22.4439 16.283 5.43942 
27103 306 4 24.3171 15.6794 5.79608 
27097 306 4 23.8997 16.3817 6.37283 
27098 306 4 22.9631 16.6835 6.19449 
27113 306 4 25.3555 16.4803 7.30623 
27102 306 4 24.4189 16.7822 7.1279 
27114 306 4 25.0457 15.9245 6.48952 
27057 303 4 22.8893 11.5782 21.1796 
27046 303 4 23.7305 11.6867 21.7733 
27473 325 4 22.8524 11.5751 21.1737 
27474 325 4 23.6947 11.6968 21.7633 
27100 306 4 23.0649 17.7863 7.52631 
27101 306 4 24.0015 17.4845 7.70464 
27099 306 4 22.5457 17.3858 6.77124 
27096 306 4 23.4823 17.084 6.94957 
27109 306 4 22.6475 18.4886 8.10305 
27110 306 4 23.5998 18.3574 8.48742 
27112 306 4 25.1633 17.1979 8.02737 
27111 306 4 24.5207 17.885 8.45972 
27209 311 4 24.9631 24.8819 3.22825 
27015 301 4 24.9688 24.882 3.20846 
27208 311 4 24.5124 25.7121 2.80446 
27016 301 4 24.5262 25.7155 2.7828 
27198 311 4 25.3376 24.3914 4.05951 
27014 301 4 25.3352 24.3883 4.04147 
27018 301 4 23.875 27.4773 3.47002 
27206 311 4 23.8537 27.4703 3.49395 
27207 311 4 24.1064 26.6595 2.90172 
27017 301 4 24.1258 26.6654 2.87853 
27006 301 4 24.6051 25.9328 3.75574 
27197 311 4 24.5957 25.9308 3.77673 
27007 301 4 24.2795 26.8137 4.09935 
27196 311 4 24.2663 26.8099 4.12148 
27012 301 4 25.4931 24.8229 5.98735 
27199 311 4 25.5356 24.372 5.07553 
27013 301 4 25.5271 24.3666 5.05861 
27004 301 4 25.0886 25.4865 5.35802 
27005 301 4 25.0096 25.2692 4.38508 
27193 311 4 25.0915 25.4892 5.37653 
27192 311 4 25.0082 25.2705 4.40426 
27200 311 4 25.5041 24.8289 6.00406 
27003 301 4 24.763 26.3674 5.70163 
27194 311 4 24.7622 26.3683 5.72128 
27001 301 4 24.6841 26.1501 4.72869 
27002 301 4 24.3585 27.031 5.0723 
27191 311 4 24.6789 26.1496 4.749 
27195 311 4 24.3496 27.0286 5.09375 
27011 301 4 25.2424 25.6348 6.57884 
27201 311 4 25.2515 25.6396 6.59629 
27010 301 4 24.842 26.5847 6.67458 
27202 311 4 24.8454 26.587 6.69355 
27203 311 4 24.3948 27.4172 6.26976 
27009 301 4 24.3993 27.4182 6.24891 
27205 311 4 23.8222 27.9271 4.42248 
27019 301 4 23.841 27.9336 4.39876 
27204 311 4 24.0203 27.9077 5.4385 
27008 301 4 24.0329 27.9119 5.41591 
27265 314 4 32.6018 5.98286 3.98362 
27185 310 4 32.5969 5.99169 3.96404 
27183 310 4 30.7396 6.07232 4.70176 
27255 314 4 30.7293 6.06162 4.68202 
27184 310 4 31.6831 5.77268 4.39872 
27266 314 4 31.6788 5.76259 4.39769 
27174 310 4 30.6434 7.74862 4.27632 
27250 314 4 30.6435 7.74003 4.26272 
27249 314 4 31.1545 6.88114 4.29777 
27175 310 4 31.1558 6.89031 4.30461 
27172 310 4 31.572 7.70831 3.90746 
27248 314 4 31.5798 7.70065 3.91352 
27177 310 4 32.5007 7.66799 3.5386 
27253 314 4 32.516 7.66128 3.56433 
27254 314 4 32.0908 6.84176 3.94857 
27176 310 4 32.0845 6.85 3.93575 
27179 310 4 30.5472 9.42492 3.85088 
27259 314 4 30.5577 9.41845 3.84343 
27251 314 4 31.0687 8.55955 3.87848 
27173 310 4 31.0596 8.56661 3.87917 
27258 314 4 29.9086 8.73789 4.27627 
27180 310 4 29.908 8.74595 4.30071 
27252 314 4 32.005 8.52017 3.52928 
27178 310 4 31.9882 8.5263 3.51031 
27189 310 4 32.4045 9.34429 3.11316 
27260 314 4 31.4807 9.63872 3.42936 
27261 314 4 32.4302 9.33969 3.14503 
27190 310 4 31.4609 9.64393 3.4162 
27257 314 4 29.7072 7.77941 4.61192 
27181 310 4 29.7147 7.78893 4.64518 
27182 310 4 30.0191 6.81032 4.79197 
27256 314 4 30.0076 6.79982 4.76043 
27332 318 4 32.176 22.2244 28.9176 
27312 317 4 31.1517 26.9588 12.9948 
27323 317 4 31.338 25.9405 12.9812 
27322 317 4 31.6562 25.0807 13.4623 
27321 317 4 32.021 24.6099 14.3091 
27310 317 4 32.0825 25.5932 15.061 
27311 317 4 31.7432 25.8065 14.1448 
27307 317 4 31.578 27.4713 14.5935 
27305 317 4 31.8302 26.5323 14.8272 
27306 317 4 31.491 26.7455 13.911 
27320 317 4 32.3347 24.6542 15.2948 
27319 317 4 32.5132 25.2017 16.1552 
27308 317 4 31.9173 27.258 15.5097 
27317 317 4 32.3225 27.1241 16.6733 
27309 317 4 32.1695 26.319 15.7435 
27318 317 4 32.5088 26.1057 16.6597 
27337 318 4 32.818 25.6634 27.2774 
27327 318 4 32.8896 24.003 27.7654 
27331 318 4 31.3686 22.62 29.4309 
27325 318 4 31.7309 23.3808 28.8926 
27326 318 4 32.5273 23.2421 28.3038 
27333 318 4 32.9613 22.3426 28.2534 
27340 318 4 30.6726 25.3405 29.0922 
27329 318 4 31.6593 25.0412 28.4046 
27324 318 4 32.0933 24.1417 28.3542 
27330 318 4 31.2969 24.2804 28.9429 
27328 318 4 32.4556 24.9026 27.8158 
27339 318 4 31.2253 25.9408 28.455 
27338 318 4 32.0106 26.059 27.7907 
27342 318 4 30.7553 23.4233 29.6557 
27341 318 4 30.5006 24.4191 29.5317 
27313 317 4 31.1472 27.8628 13.4993 
27314 317 4 31.3258 28.4104 14.3597 
27316 317 4 32.0043 27.9838 16.1922 
27315 317 4 31.6395 28.4546 15.3453 
ITEM: TIMESTEP
7050000
ITEM: NUMBER OF ATOMS
475
ITEM: BOX BOUNDS pp pp pp
7.1354277009520928e-01 3.3076457229894366e+01
7.1354277009520928e-01 3.3076457229894366e+01
7.1354277009520928e-01 3.3076457229894366e+01
ITEM: ATOMS id mol type x y z 
27186 310 4 2.047 5.82768 4.27851 
27264 314 4 2.03239 5.83801 4.25109 
27265 314 4 1.15868 5.39773 4.58972 
27185 310 4 1.17642 5.38239 4.61863 
27439 324 4 5.19865 0.939841 7.10698 
27444 324 4 6.02333 1.49626 7.0051 
27438 324 4 5.85008 0.739052 6.37526 
27456 324 4 5.29793 1.84526 7.94745 
27445 324 4 4.54722 1.14063 7.83869 
27293 316 4 5.60485 5.94039 19.1056 
27176 310 4 0.876419 6.21495 4.15288 
27178 310 4 1.24998 7.65623 3.26778 
27253 314 4 1.54252 6.84001 3.71067 
27187 310 4 2.52354 6.59983 3.77993 
27177 310 4 1.54998 6.82367 3.73353 
27188 310 4 2.47835 7.49193 3.25648 
27262 314 4 2.4756 7.50342 3.23605 
27263 314 4 2.51441 6.60875 3.75561 
27252 314 4 1.24849 7.67678 3.24868 
27260 314 4 1.01384 8.73668 2.65069 
27189 310 4 1.92354 8.26495 2.84843 
27261 314 4 1.92635 8.28229 2.83162 
27190 310 4 1.00777 8.71176 2.6651 
27254 314 4 0.864652 6.2345 4.12773 
27289 316 4 5.89073 6.99066 16.694 
27298 316 4 5.83864 7.66785 15.6573 
27290 316 4 5.26302 7.76711 16.7504 
27300 316 4 4.52058 8.75789 16.694 
27299 316 4 5.14908 8.37602 15.9653 
27287 316 4 5.4909 6.5493 18.3205 
27288 316 4 6.00467 6.38175 17.479 
27286 316 4 5.37696 7.15821 17.5354 
27292 316 4 4.8632 7.32575 18.3769 
27302 316 4 4.0589 8.24824 18.5722 
27301 316 4 4.12155 8.71112 17.6482 
27291 316 4 4.74925 7.93466 17.5918 
27369 320 4 5.85432 9.2544 18.6908 
27433 323 4 5.86471 9.24732 18.7072 
27370 320 4 6.06231 9.60363 17.7386 
27303 316 4 4.34943 7.4933 19.2183 
27304 316 4 4.91529 6.64856 19.4136 
27434 323 4 6.01179 8.54956 19.4578 
27380 320 4 6.00107 8.5573 19.442 
27432 323 4 6.07401 9.59867 17.7561 
27125 307 4 5.34151 25.7887 2.17073 
27240 313 4 5.3349 25.7915 2.16415 
27241 313 4 5.59442 26.6632 1.66948 
27124 307 4 5.59906 26.6569 1.66894 
27238 313 4 5.97088 24.8596 3.81563 
27127 307 4 5.97476 24.8754 3.83365 
27239 313 4 5.4727 25.1314 2.94969 
27126 307 4 5.47903 25.1366 2.96307 
27232 313 4 6.07629 26.1862 2.70694 
27313 317 4 0.839146 26.8568 14.7857 
27321 317 4 1.70694 23.6658 13.7536 
27320 317 4 1.97662 23.1679 14.6204 
27322 317 4 1.37527 24.5239 13.2788 
27323 317 4 1.07048 25.5123 13.3231 
27311 317 4 1.42544 24.7671 14.2475 
27306 317 4 1.17493 25.6882 14.5455 
27312 317 4 0.874248 26.3662 13.8747 
27310 317 4 1.72611 24.089 14.9183 
27319 317 4 2.11206 23.1636 15.6468 
27318 317 4 2.07695 23.6542 16.5579 
27309 317 4 1.77628 24.3322 15.8871 
27305 317 4 1.4756 25.0102 15.2163 
27308 317 4 1.52577 25.2534 16.185 
27307 317 4 1.22509 25.9314 15.5142 
27314 317 4 0.974581 26.8526 15.8121 
27315 317 4 1.24426 26.3547 16.6789 
27317 317 4 1.88072 24.5081 17.1094 
27316 317 4 1.57593 25.4965 17.1537 
27336 318 4 0.718517 26.4111 28.8118 
27448 324 4 4.69777 31.5851 5.76563 
27449 324 4 5.50357 31.5875 5.11559 
27441 324 4 5.67683 32.3448 5.74543 
27446 324 4 4.14562 32.6913 7.33781 
27447 324 4 4.20072 31.9891 6.57902 
27440 324 4 5.0254 32.5455 6.47714 
27452 324 4 7.55454 1.1497 5.41271 
27443 324 4 6.67476 1.29547 6.27338 
27453 324 4 7.49944 1.8519 6.1715 
27454 324 4 7.00239 2.25591 6.98489 
27455 324 4 6.19658 2.25348 7.63493 
27296 316 4 6.69502 6.06817 16.4987 
27294 316 4 6.23335 5.55852 18.3768 
27295 316 4 6.63238 5.60529 17.4226 
27297 316 4 6.40449 6.82311 15.8525 
27374 320 4 8.35529 7.35499 16.4398 
27428 323 4 8.37766 7.35949 16.4599 
27371 320 4 6.56929 9.51142 16.8406 
27373 320 4 7.89315 8.21317 16.0908 
27429 323 4 7.91362 8.21668 16.1109 
27372 320 4 7.23942 9.00247 16.2375 
27430 323 4 7.25694 9.00363 16.2571 
27431 323 4 6.5836 9.50947 16.8593 
27420 323 4 7.75509 7.13245 18.0602 
27367 320 4 7.48263 7.17851 18.4911 
27366 320 4 7.84011 7.30702 17.566 
27421 323 4 7.7862 7.65701 17.2094 
27376 320 4 8.29405 6.30866 18.1433 
27426 323 4 8.31545 6.31038 18.1616 
27427 323 4 8.52475 6.66173 17.2105 
27375 320 4 8.50204 6.65789 17.1911 
27364 320 4 6.87374 8.73378 17.3908 
27362 320 4 7.17818 7.95615 17.9409 
27419 323 4 7.19473 7.95452 17.9589 
27423 323 4 6.63437 8.7766 17.8575 
27363 320 4 6.51625 8.60527 18.3158 
27422 323 4 7.22584 8.47908 17.108 
27365 320 4 7.53566 8.08466 17.0158 
27425 323 4 7.16362 7.42997 18.8097 
27437 323 4 7.80586 6.39958 19.0584 
27377 320 4 7.78707 6.40087 19.0412 
27436 323 4 7.13251 6.90542 19.6606 
27378 320 4 7.11694 6.90982 19.6444 
27424 323 4 6.60326 8.25204 18.7083 
27379 320 4 6.46321 7.69913 19.7911 
27368 320 4 6.8207 7.82764 18.866 
27435 323 4 6.47584 7.69237 19.8068 
27082 305 4 11.4696 10.982 24.5695 
27023 302 4 10.5812 11.3854 24.8257 
27094 305 4 10.1903 11.2376 25.709 
27031 302 4 10.176 11.2344 25.7274 
27030 302 4 11.0701 10.7128 25.7447 
27093 305 4 11.0815 10.7106 25.7148 
27083 305 4 10.5906 11.3959 24.8064 
27022 302 4 11.4641 10.9741 24.599 
27036 302 4 10.9026 12.36 22.1032 
27087 305 4 10.9002 12.398 22.0925 
27085 305 4 9.423 12.6931 23.4083 
27034 302 4 9.41523 12.6606 23.4062 
27079 305 4 10.5121 12.1266 23.2378 
27025 302 4 10.5086 12.0986 23.2489 
27026 302 4 11.3915 11.6873 23.0222 
27080 305 4 11.3911 11.7126 23.001 
27086 305 4 10.0333 12.6989 22.572 
27035 302 4 10.0309 12.6609 22.5738 
27033 302 4 9.22054 12.359 24.3773 
27084 305 4 9.2328 12.3821 24.3773 
27032 302 4 9.499 11.837 25.2269 
27095 305 4 9.51366 11.8494 25.2195 
27078 305 4 10.1118 11.9682 24.1405 
27024 302 4 10.1035 11.9477 24.1506 
27020 302 4 10.9864 11.5364 23.924 
27077 305 4 10.9908 11.5543 23.9037 
27246 313 4 8.30046 27.3704 4.33531 
27117 307 4 6.20748 26.6261 2.46201 
27233 313 4 6.49969 27.0469 2.42399 
27123 307 4 6.18266 27.5086 1.59216 
27231 313 4 6.39428 25.7203 3.53268 
27235 313 4 7.55907 26.9757 3.79252 
27229 313 4 6.81768 26.581 3.24973 
27115 307 4 6.81591 26.5953 3.25508 
27230 313 4 7.13567 26.115 4.07547 
27120 307 4 7.42433 26.5646 4.04815 
27119 307 4 6.75589 25.8352 3.90214 
27116 307 4 6.87592 27.3555 2.60801 
27234 313 4 7.24108 27.4416 2.96678 
27121 307 4 7.48434 27.3247 3.40108 
27242 313 4 6.18171 27.5129 1.59824 
27128 307 4 6.69587 25.0751 4.5492 
27237 313 4 6.69596 25.0491 4.52994 
27236 313 4 7.45366 25.6491 4.90122 
27129 307 4 7.44915 25.6821 4.918 
27247 313 4 8.04094 26.4987 4.82998 
27130 307 4 8.03275 26.5338 4.84121 
27131 307 4 8.2903 27.402 4.33942 
27118 307 4 6.14747 25.866 3.10907 
27122 307 4 6.93594 28.1156 1.96095 
27243 313 4 6.9394 28.1128 1.96952 
27133 307 4 7.65705 28.3152 2.6765 
27244 313 4 7.66448 28.3023 2.68382 
27245 313 4 8.16266 28.0306 3.54977 
27132 307 4 8.15278 28.054 3.54709 
27451 324 4 7.15293 32.7004 4.91183 
27450 324 4 6.40223 31.9958 4.80308 
27442 324 4 6.5015 32.9012 5.64355 
27393 321 4 10.7033 28.6969 6.42782 
27170 309 4 10.7238 28.6927 6.43384 
27392 321 4 10.5353 29.7185 6.43339 
27169 309 4 10.5448 29.7124 6.43886 
27171 309 4 11.3828 27.8985 6.35148 
27394 321 4 11.3536 27.8956 6.34509 
27168 309 4 10.8938 30.6844 6.36519 
27391 321 4 10.8947 30.6867 6.36029 
27075 304 4 13.1371 11.3187 1.96965 
27076 304 4 13.6271 10.5022 1.56326 
27065 304 4 14.2481 10.0978 0.840254 
27090 305 4 12.7488 10.7264 23.43 
27027 302 4 12.7522 10.7138 23.4706 
27089 305 4 12.468 11.2592 22.5879 
27038 302 4 12.4737 11.2358 22.621 
27081 305 4 11.8698 11.1404 23.6669 
27021 302 4 11.8693 11.1251 23.6973 
27217 312 4 15.2961 11.2184 25.8866 
27029 302 4 11.9418 10.4118 25.2741 
27092 305 4 11.9484 10.4097 25.2354 
27028 302 4 12.5575 10.4122 24.4417 
27091 305 4 12.5586 10.4155 24.3991 
27218 312 4 14.6122 10.8004 26.5419 
27219 312 4 13.7567 10.884 27.1189 
27279 315 4 15.3034 11.242 25.865 
27220 312 4 12.9587 11.4468 27.4629 
27276 315 4 12.9586 11.4537 27.4327 
27278 315 4 14.62 10.8191 26.5176 
27277 315 4 13.7617 10.8965 27.0915 
27059 304 4 14.182 11.0689 32.9739 
27066 304 4 14.8336 10.2138 32.3573 
27067 304 4 15.2269 10.8192 31.6152 
27060 304 4 14.6715 11.4296 32.1799 
27074 304 4 12.9094 12.3285 1.95056 
27063 304 4 13.5605 12.6505 0.946377 
27064 304 4 13.6265 11.6794 1.17567 
27073 304 4 13.005 13.261 1.51108 
27072 304 4 13.3983 13.8664 0.768978 
27037 302 4 11.7967 11.8383 22.1205 
27088 305 4 11.7913 11.871 22.0983 
27216 312 4 14.7412 12.8396 25.6333 
27272 315 4 14.4718 13.3032 25.6188 
27280 315 4 15.6288 12.0521 25.3084 
27228 312 4 15.625 12.026 25.3284 
27281 315 4 15.5091 13.0321 24.997 
27227 312 4 15.5109 13.0068 25.0171 
27226 312 4 14.9842 13.8979 25.0359 
27282 315 4 14.9762 13.9197 25.0142 
27283 315 4 14.1731 14.4768 25.3555 
27225 312 4 14.1862 14.4607 25.3799 
27215 312 4 14.0789 13.5666 25.8147 
27221 312 4 12.432 12.338 27.4818 
27213 312 4 13.2018 12.5052 26.8656 
27268 315 4 13.1367 13.004 26.681 
27275 315 4 12.4257 12.3412 27.4499 
27274 315 4 12.306 13.3213 27.1385 
27222 312 4 12.3179 13.3188 27.1704 
27269 315 4 13.463 12.0702 26.8281 
27212 312 4 13.8641 11.7782 26.6842 
27271 315 4 14.7981 12.3694 25.7659 
27267 315 4 13.9674 12.6867 26.2235 
27210 312 4 13.9715 12.6724 26.2494 
27211 312 4 14.6338 11.9454 26.068 
27270 315 4 14.2937 11.7529 26.3706 
27214 312 4 13.3091 13.3994 26.4309 
27223 312 4 12.6468 14.1263 26.6123 
27285 315 4 12.6314 14.1313 26.5819 
27224 312 4 13.3307 14.5443 25.9569 
27284 315 4 13.3148 14.5543 25.9293 
27273 315 4 13.6411 13.6205 26.0764 
27069 304 4 15.0949 12.7615 31.1566 
27058 304 4 14.116 12.0401 32.7446 
27062 304 4 14.0499 13.0113 32.5153 
27061 304 4 14.6054 12.4008 31.9506 
27070 304 4 14.6049 13.578 31.563 
27071 304 4 13.9839 13.9824 32.286 
27068 304 4 15.3225 11.7517 31.1757 
27395 321 4 12.3121 27.5294 6.20735 
27160 309 4 12.3452 27.5425 6.21384 
27165 309 4 13.6475 31.1698 5.93889 
27161 309 4 13.3531 27.7202 6.05781 
27386 321 4 12.9128 28.6077 6.09567 
27388 321 4 13.6537 31.1426 5.93455 
27155 309 4 13.3258 28.959 6.03519 
27382 321 4 13.0786 30.3308 6.03719 
27387 321 4 13.4878 29.4194 5.99304 
27166 309 4 12.6851 31.5258 6.07653 
27397 321 4 14.1125 28.3516 5.91935 
27389 321 4 12.6951 31.5089 6.07229 
27162 309 4 14.1365 28.3839 5.92519 
27156 309 4 13.4108 29.9549 6.00086 
27164 309 4 14.3065 30.3756 5.85653 
27398 321 4 14.472 29.3197 5.84625 
27163 309 4 14.4855 29.3559 5.85151 
27399 321 4 14.304 30.3413 5.85182 
27157 309 4 12.6001 30.53 6.11086 
27396 321 4 13.322 27.6962 6.05152 
27385 321 4 11.9286 28.7074 6.24245 
27154 309 4 12.4301 28.5383 6.17952 
27159 309 4 11.6195 29.1134 6.28951 
27158 309 4 11.7045 30.1093 6.25519 
27167 309 4 11.6772 31.3481 6.23256 
27390 321 4 11.6853 31.342 6.22812 
27384 321 4 11.5195 29.6188 6.2866 
27383 321 4 12.0945 30.4305 6.18397 
27381 321 4 12.5036 29.5191 6.13982 
27153 309 4 12.5151 29.5342 6.14519 
27147 308 4 13.969 32.2059 26.3417 
27149 308 4 15.718 32.188 27.3117 
27148 308 4 14.9339 32.3924 26.6673 
27139 308 4 14.9886 31.5606 27.5843 
27144 308 4 12.407 30.2191 27.6119 
27145 308 4 12.5101 30.9511 26.8871 
27137 308 4 13.3846 30.9422 27.372 
27146 308 4 13.0818 31.6784 26.4221 
27138 308 4 14.114 31.5696 27.0994 
27143 308 4 12.8002 29.6784 28.4024 
27136 308 4 13.5297 30.3058 28.1297 
27135 308 4 14.4042 30.2968 28.6147 
27134 308 4 14.2591 30.9332 27.857 
27142 308 4 13.5843 29.474 29.0468 
27140 308 4 15.1336 30.9242 28.342 
27151 308 4 16.0081 30.9153 28.827 
27150 308 4 16.1112 31.6473 28.1022 
27141 308 4 14.5492 29.6605 29.3724 
27152 308 4 15.4364 30.188 29.292 
27415 322 4 22.0865 4.93669 22.1493 
27355 319 4 21.8847 5.92493 21.9443 
27416 322 4 21.8882 5.93567 21.9633 
27354 319 4 22.0808 4.92786 22.1425 
27417 322 4 21.8921 6.92343 22.2734 
27356 319 4 21.8898 6.91626 22.2428 
27357 319 4 22.0947 7.63623 22.9581 
27418 322 4 22.0972 7.63531 22.9967 
27406 322 4 22.2675 6.40862 23.0442 
27347 319 4 22.2627 6.40989 23.0204 
27107 306 4 22.2737 14.725 5.6234 
27413 322 4 22.8373 3.90708 23.6909 
27352 319 4 22.8268 3.91512 23.6975 
27400 322 4 22.6429 5.89382 23.815 
27345 319 4 22.7312 4.90932 23.7477 
27404 322 4 22.7401 4.90045 23.753 
27343 319 4 22.6357 5.90352 23.7979 
27353 319 4 22.4257 4.19222 22.7842 
27351 319 4 23.1766 4.17081 24.6378 
27412 322 4 23.1887 4.15233 24.6334 
27361 319 4 23.3867 5.88211 25.6515 
27410 322 4 23.3977 5.85197 25.6668 
27344 319 4 23.0086 5.39715 24.5755 
27403 322 4 23.0183 5.37901 24.5858 
27350 319 4 23.3816 4.89077 25.353 
27411 322 4 23.3937 4.86421 25.3566 