ITEM: TIMESTEP
0
ITEM: NUMBER OF ATOMS
1425
ITEM: BOX BOUNDS pp pp pp
0.0000000000000000e+00 3.4000000000000000e+01
0.0000000000000000e+00 3.4000000000000000e+01
0.0000000000000000e+00 3.4000000000000000e+01
ITEM: ATOMS id mol type x y z 
4 0 5 0.5 3.8 0.5 
1923 0 5 4.9 2.7 2.5 
1805 0 5 0.5 4.9 2.5 
2761 0 5 2.7 0.5 3.5 
5459 0 5 1.6 1.6 6.5 
5525 0 5 4.9 4.9 6.5 
6301 0 5 0.5 0.5 7.5 
6304 0 5 0.5 3.8 7.5 
7203 0 5 0.5 2.7 8.5 
7323 0 5 4.9 2.7 8.5 
9063 0 5 2.7 2.7 10.5 
9065 0 5 2.7 4.9 10.5 
10021 0 5 4.9 0.5 11.5 
10803 0 5 0.5 2.7 12.5 
10925 0 5 4.9 4.9 12.5 
12661 0 5 2.7 0.5 14.5 
12725 0 5 4.9 4.9 14.5 
13622 0 5 4.9 1.6 15.5 
13616 0 5 3.8 4.9 15.5 
15420 0 5 3.8 0.5 17.5 
16201 0 5 0.5 0.5 18.5 
16261 0 5 2.7 0.5 18.5 
16324 0 5 4.9 3.8 18.5 
17221 0 5 4.9 0.5 19.5 
18003 0 5 0.5 2.7 20.5 
19805 0 5 0.5 4.9 22.5 
20817 0 5 3.8 3.8 23.5 
21601 0 5 0.5 0.5 24.5 
22563 0 5 2.7 2.7 25.5 
22624 0 5 4.9 3.8 25.5 
25323 0 5 4.9 2.7 28.5 
26157 0 5 1.6 3.8 29.5 
26156 0 5 1.6 4.9 29.5 
6 0 5 0.5 6 0.5 
7 0 5 0.5 7.1 0.5 
54 0 5 1.6 7.1 0.5 
1928 0 5 4.9 8.2 2.5 
3610 0 5 0.5 10.4 4.5 
4510 0 5 0.5 10.4 5.5 
5469 0 5 2.7 9.3 6.5 
5410 0 5 0.5 10.4 6.5 
7315 0 5 3.8 6 8.5 
8213 0 5 3.8 8.2 9.5 
8170 0 5 2.7 10.4 9.5 
9969 0 5 2.7 9.3 11.5 
10927 0 5 4.9 7.1 12.5 
12713 0 5 3.8 8.2 14.5 
12728 0 5 4.9 8.2 14.5 
12669 0 5 2.7 9.3 14.5 
12711 0 5 3.8 10.4 14.5 
13614 0 5 3.8 7.1 15.5 
13552 0 5 1.6 9.3 15.5 
14408 0 5 0.5 8.2 16.5 
14409 0 5 0.5 9.3 16.5 
15308 0 5 0.5 8.2 17.5 
16329 0 5 4.9 9.3 18.5 
17154 0 5 1.6 7.1 19.5 
17212 0 5 3.8 9.3 19.5 
18055 0 5 1.6 6 20.5 
18069 0 5 2.7 9.3 20.5 
18910 0 5 0.5 10.4 21.5 
20754 0 5 1.6 7.1 23.5 
20751 0 5 1.6 10.4 23.5 
21715 0 5 3.8 6 24.5 
21609 0 5 0.5 9.3 24.5 
21730 0 5 4.9 10.4 24.5 
22506 0 5 0.5 6 25.5 
22566 0 5 2.7 6 25.5 
22507 0 5 0.5 7.1 25.5 
22567 0 5 2.7 7.1 25.5 
22614 0 5 3.8 7.1 25.5 
22552 0 5 1.6 9.3 25.5 
22510 0 5 0.5 10.4 25.5 
23467 0 5 2.7 7.1 26.5 
23410 0 5 0.5 10.4 26.5 
24352 0 5 1.6 9.3 27.5 
25326 0 5 4.9 6 28.5 
25209 0 5 0.5 9.3 28.5 
26212 0 5 3.8 9.3 29.5 
50 0 5 1.6 11.5 0.5 
72 0 5 2.7 12.6 0.5 
13 0 5 0.5 13.7 0.5 
2713 0 5 0.5 13.7 3.5 
2746 0 5 1.6 15.9 3.5 
3611 0 5 0.5 11.5 4.5 
3732 0 5 4.9 12.6 4.5 
4633 0 5 4.9 13.7 5.5 
4574 0 5 2.7 14.8 5.5 
5531 0 5 4.9 11.5 6.5 
6350 0 5 1.6 11.5 7.5 
6349 0 5 1.6 12.6 7.5 
6313 0 5 0.5 13.7 7.5 
6314 0 5 0.5 14.8 7.5 
6315 0 5 0.5 15.9 7.5 
6406 0 5 3.8 15.9 7.5 
7335 0 5 4.9 15.9 8.5 
8113 0 5 0.5 13.7 9.5 
8174 0 5 2.7 14.8 9.5 
10872 0 5 2.7 12.6 12.5 
10875 0 5 2.7 15.9 12.5 
11750 0 5 1.6 11.5 13.5 
11712 0 5 0.5 12.6 13.5 
11833 0 5 4.9 13.7 13.5 
11834 0 5 4.9 14.8 13.5 
11746 0 5 1.6 15.9 13.5 
12672 0 5 2.7 12.6 14.5 
13513 0 5 0.5 13.7 15.5 
13515 0 5 0.5 15.9 15.5 
14508 0 5 3.8 13.7 16.5 
14506 0 5 3.8 15.9 16.5 
15311 0 5 0.5 11.5 17.5 
15408 0 5 3.8 13.7 17.5 
16310 0 5 3.8 11.5 18.5 
16335 0 5 4.9 15.9 18.5 
17235 0 5 4.9 15.9 19.5 
18131 0 5 4.9 11.5 20.5 
18109 0 5 3.8 12.6 20.5 
18073 0 5 2.7 13.7 20.5 
19010 0 5 3.8 11.5 21.5 
19031 0 5 4.9 11.5 21.5 
19009 0 5 3.8 12.6 21.5 
20810 0 5 3.8 11.5 23.5 
20748 0 5 1.6 13.7 23.5 
21612 0 5 0.5 12.6 24.5 
21732 0 5 4.9 12.6 24.5 
22550 0 5 1.6 11.5 25.5 
22631 0 5 4.9 11.5 25.5 
22608 0 5 3.8 13.7 25.5 
22547 0 5 1.6 14.8 25.5 
23412 0 5 0.5 12.6 26.5 
23474 0 5 2.7 14.8 26.5 
23535 0 5 4.9 15.9 26.5 
24313 0 5 0.5 13.7 27.5 
25211 0 5 0.5 11.5 28.5 
25309 0 5 3.8 12.6 28.5 
25248 0 5 1.6 13.7 28.5 
26112 0 5 0.5 12.6 29.5 
26115 0 5 0.5 15.9 29.5 
17 0 5 0.5 18.1 0.5 
19 0 5 0.5 20.3 0.5 
917 0 5 0.5 18.1 1.5 
1039 0 5 4.9 20.3 1.5 
1843 0 5 1.6 19.2 2.5 
1819 0 5 0.5 20.3 2.5 
2718 0 5 0.5 19.2 3.5 
2801 0 5 3.8 21.4 3.5 
4641 0 5 4.9 22.5 5.5 
5417 0 5 0.5 18.1 6.5 
5443 0 5 1.6 19.2 6.5 
5419 0 5 0.5 20.3 6.5 
6404 0 5 3.8 18.1 7.5 
6440 0 5 4.9 21.4 7.5 
6441 0 5 4.9 22.5 7.5 
7302 0 5 3.8 20.3 8.5 
8120 0 5 0.5 21.4 9.5 
8201 0 5 3.8 21.4 9.5 
9076 0 5 2.7 17 10.5 
9044 0 5 1.6 18.1 10.5 
9138 0 5 4.9 19.2 10.5 
9019 0 5 0.5 20.3 10.5 
10840 0 5 1.6 22.5 12.5 
11776 0 5 2.7 17 13.5 
12704 0 5 3.8 18.1 14.5 
12702 0 5 3.8 20.3 14.5 
13516 0 5 0.5 17 15.5 
13545 0 5 1.6 17 15.5 
13540 0 5 1.6 22.5 15.5 
14445 0 5 1.6 17 16.5 
14418 0 5 0.5 19.2 16.5 
15401 0 5 3.8 21.4 17.5 
16244 0 5 1.6 18.1 18.5 
16302 0 5 3.8 20.3 18.5 
16280 0 5 2.7 21.4 18.5 
17143 0 5 1.6 19.2 19.5 
18103 0 5 3.8 19.2 20.5 
18100 0 5 3.8 22.5 20.5 
18916 0 5 0.5 17 21.5 
18918 0 5 0.5 19.2 21.5 
19039 0 5 4.9 20.3 21.5 
18920 0 5 0.5 21.4 21.5 
19876 0 5 2.7 17 22.5 
20802 0 5 3.8 20.3 23.5 
21705 0 5 3.8 17 24.5 
21702 0 5 3.8 20.3 24.5 
21641 0 5 1.6 21.4 24.5 
22544 0 5 1.6 18.1 25.5 
22640 0 5 4.9 21.4 25.5 
22581 0 5 2.7 22.5 25.5 
23420 0 5 0.5 21.4 26.5 
23440 0 5 1.6 22.5 26.5 
23541 0 5 4.9 22.5 26.5 
24377 0 5 2.7 18.1 27.5 
38 0 5 1.6 24.7 0.5 
98 0 5 3.8 24.7 0.5 
85 0 5 2.7 26.9 0.5 
925 0 5 0.5 26.9 1.5 
1884 0 5 2.7 25.8 2.5 
2782 0 5 2.7 23.6 3.5 
2784 0 5 2.7 25.8 3.5 
2796 0 5 3.8 26.9 3.5 
2795 0 5 3.8 28 3.5 
4522 0 5 0.5 23.6 5.5 
5422 0 5 0.5 23.6 6.5 
6322 0 5 0.5 23.6 7.5 
6399 0 5 3.8 23.6 7.5 
7225 0 5 0.5 26.9 8.5 
8136 0 5 1.6 26.9 9.5 
9083 0 5 2.7 24.7 10.5 
9098 0 5 3.8 24.7 10.5 
9145 0 5 4.9 26.9 10.5 
10837 0 5 1.6 25.8 12.5 
12699 0 5 3.8 23.6 14.5 
12698 0 5 3.8 24.7 14.5 
13523 0 5 0.5 24.7 15.5 
14423 0 5 0.5 24.7 16.5 
14483 0 5 2.7 24.7 16.5 
16346 0 5 4.9 28 18.5 
17243 0 5 4.9 24.7 19.5 
18098 0 5 3.8 24.7 20.5 
18086 0 5 2.7 28 20.5 
18095 0 5 3.8 28 20.5 
18923 0 5 0.5 24.7 21.5 
18936 0 5 1.6 26.9 21.5 
18985 0 5 2.7 26.9 21.5 
19884 0 5 2.7 25.8 22.5 
19885 0 5 2.7 26.9 22.5 
21635 0 5 1.6 28 24.5 
22595 0 5 3.8 28 25.5 
23422 0 5 0.5 23.6 26.5 
23438 0 5 1.6 24.7 26.5 
23483 0 5 2.7 24.7 26.5 
23497 0 5 3.8 25.8 26.5 
23435 0 5 1.6 28 26.5 
25297 0 5 3.8 25.8 28.5 
87 0 5 2.7 29.1 0.5 
933 0 5 1.6 30.2 1.5 
1947 0 5 4.9 29.1 2.5 
2791 0 5 3.8 32.4 3.5 
4591 0 5 3.8 32.4 5.5 
5434 0 5 1.6 29.1 6.5 
6390 0 5 2.7 32.4 7.5 
6391 0 5 3.8 32.4 7.5 
7227 0 5 0.5 29.1 8.5 
7233 0 5 1.6 30.2 8.5 
7231 0 5 1.6 32.4 8.5 
8193 0 5 3.8 30.2 9.5 
9030 0 5 0.5 32.4 10.5 
14548 0 5 4.9 30.2 16.5 
14429 0 5 0.5 31.3 16.5 
14549 0 5 4.9 31.3 16.5 
15334 0 5 1.6 29.1 17.5 
15333 0 5 1.6 30.2 17.5 
15390 0 5 2.7 32.4 17.5 
16347 0 5 4.9 29.1 18.5 
16348 0 5 4.9 30.2 18.5 
18148 0 5 4.9 30.2 20.5 
18090 0 5 2.7 32.4 20.5 
18988 0 5 2.7 30.2 21.5 
18931 0 5 1.6 32.4 21.5 
21633 0 5 1.6 30.2 24.5 
21693 0 5 3.8 30.2 24.5 
22647 0 5 4.9 29.1 25.5 
22529 0 5 0.5 31.3 25.5 
22589 0 5 2.7 31.3 25.5 
23434 0 5 1.6 29.1 26.5 
23432 0 5 1.6 31.3 26.5 
23489 0 5 2.7 31.3 26.5 
25288 0 5 2.7 30.2 28.5 
240 0 5 8.2 0.5 0.5 
177 0 5 6 3.8 0.5 
1140 0 5 8.2 0.5 1.5 
1139 0 5 8.2 1.6 1.5 
1138 0 5 8.2 2.7 1.5 
1197 0 5 10.4 3.8 1.5 
2044 0 5 9.3 3.8 2.5 
2884 0 5 7.1 3.8 3.5 
3837 0 5 8.2 3.8 4.5 
3897 0 5 10.4 3.8 4.5 
5643 0 5 9.3 2.7 6.5 
6599 0 5 10.4 1.6 7.5 
7443 0 5 9.3 2.7 8.5 
7445 0 5 9.3 4.9 8.5 
8396 0 5 10.4 4.9 9.5 
10976 0 5 6 4.9 12.5 
11878 0 5 6 2.7 13.5 
11885 0 5 7.1 4.9 13.5 
12782 0 5 7.1 1.6 14.5 
12898 0 5 10.4 2.7 14.5 
13682 0 5 7.1 1.6 15.5 
13799 0 5 10.4 1.6 15.5 
14640 0 5 8.2 0.5 16.5 
15537 0 5 8.2 3.8 17.5 
16379 0 5 6 1.6 18.5 
17343 0 5 9.3 2.7 19.5 
18184 0 5 7.1 3.8 20.5 
20941 0 5 9.3 0.5 23.5 
22741 0 5 9.3 0.5 25.5 
22800 0 5 10.4 0.5 25.5 
22739 0 5 8.2 1.6 25.5 
22737 0 5 8.2 3.8 25.5 
23699 0 5 10.4 1.6 26.5 
23644 0 5 9.3 3.8 26.5 
24538 0 5 8.2 2.7 27.5 
25384 0 5 7.1 3.8 28.5 
25385 0 5 7.1 4.9 28.5 
234 0 5 8.2 7.1 0.5 
294 0 5 10.4 7.1 0.5 
171 0 5 6 10.4 0.5 
190 0 5 7.1 10.4 0.5 
1974 0 5 6 7.1 2.5 
2875 0 5 6 6 3.5 
2888 0 5 7.1 8.2 3.5 
5632 0 5 8.2 9.3 6.5 
6547 0 5 9.3 7.1 7.5 
6531 0 5 8.2 10.4 7.5 
6550 0 5 9.3 10.4 7.5 
7372 0 5 6 9.3 8.5 
8395 0 5 10.4 6 9.5 
10086 0 5 7.1 6 11.5 
10974 0 5 6 7.1 12.5 
11931 0 5 8.2 10.4 13.5 
12775 0 5 6 6 14.5 
12895 0 5 10.4 6 14.5 
12894 0 5 10.4 7.1 14.5 
13687 0 5 7.1 7.1 15.5 
13689 0 5 7.1 9.3 15.5 
14648 0 5 9.3 8.2 16.5 
14692 0 5 10.4 9.3 16.5 
14571 0 5 6 10.4 16.5 
14590 0 5 7.1 10.4 16.5 
17274 0 5 6 7.1 19.5 
18175 0 5 6 6 20.5 
18291 0 5 10.4 10.4 20.5 
20035 0 5 8.2 6 22.5 
21787 0 5 7.1 7.1 24.5 
21790 0 5 7.1 10.4 24.5 
21831 0 5 8.2 10.4 24.5 
22748 0 5 9.3 8.2 25.5 
22671 0 5 6 10.4 25.5 
23694 0 5 10.4 7.1 26.5 
23589 0 5 7.1 9.3 26.5 
25446 0 5 9.3 6 28.5 
25372 0 5 6 9.3 28.5 
25491 0 5 10.4 10.4 28.5 
1994 0 5 7.1 14.8 2.5 
2987 0 5 10.4 14.8 3.5 
2986 0 5 10.4 15.9 3.5 
3890 0 5 10.4 11.5 4.5 
3829 0 5 8.2 12.6 4.5 
4754 0 5 9.3 14.8 5.5 
5629 0 5 8.2 12.6 6.5 
6589 0 5 10.4 12.6 7.5 
6467 0 5 6 14.8 7.5 
6587 0 5 10.4 14.8 7.5 
6555 0 5 9.3 15.9 7.5 
7490 0 5 10.4 11.5 8.5 
8328 0 5 8.2 13.7 9.5 
8326 0 5 8.2 15.9 9.5 
9255 0 5 9.3 15.9 10.5 
10188 0 5 10.4 13.7 11.5 
11928 0 5 8.2 13.7 13.5 
11867 0 5 6 14.8 13.5 
12770 0 5 6 11.5 14.5 
12793 0 5 7.1 13.7 14.5 
12828 0 5 8.2 13.7 14.5 
12827 0 5 8.2 14.8 14.5 
13668 0 5 6 13.7 15.5 
13693 0 5 7.1 13.7 15.5 
13666 0 5 6 15.9 15.5 
16370 0 5 6 11.5 18.5 
16453 0 5 9.3 13.7 18.5 
17352 0 5 9.3 12.6 19.5 
17386 0 5 10.4 15.9 19.5 
18170 0 5 6 11.5 20.5 
18191 0 5 7.1 11.5 20.5 
19154 0 5 9.3 14.8 21.5 
20089 0 5 10.4 12.6 22.5 
19968 0 5 6 13.7 22.5 
19994 0 5 7.1 14.8 22.5 
20954 0 5 9.3 14.8 23.5 
21888 0 5 10.4 13.7 24.5 
22668 0 5 6 13.7 25.5 
22666 0 5 6 15.9 25.5 
23592 0 5 7.1 12.6 26.5 
24530 0 5 8.2 11.5 27.5 
26267 0 5 6 14.8 29.5 
223 0 5 8.2 19.2 0.5 
161 0 5 6 21.4 0.5 
200 0 5 7.1 21.4 0.5 
4696 0 5 7.1 17 5.5 
4698 0 5 7.1 19.2 5.5 
4662 0 5 6 20.3 5.5 
5658 0 5 9.3 19.2 6.5 
5562 0 5 6 20.3 6.5 
6558 0 5 9.3 19.2 7.5 
6461 0 5 6 21.4 7.5 
7398 0 5 7.1 19.2 8.5 
7482 0 5 10.4 20.3 8.5 
8261 0 5 6 21.4 9.5 
9163 0 5 6 19.2 10.5 
9258 0 5 9.3 19.2 10.5 
9260 0 5 9.3 21.4 10.5 
10125 0 5 8.2 17 11.5 
10061 0 5 6 21.4 11.5 
10160 0 5 9.3 21.4 11.5 
10965 0 5 6 17 12.5 
11058 0 5 9.3 19.2 12.5 
11082 0 5 10.4 20.3 12.5 
11897 0 5 7.1 18.1 13.5 
12860 0 5 9.3 21.4 14.5 
13781 0 5 10.4 21.4 15.5 
13660 0 5 6 22.5 15.5 
14658 0 5 9.3 19.2 16.5 
14622 0 5 8.2 20.3 16.5 
14682 0 5 10.4 20.3 16.5 
14660 0 5 9.3 21.4 16.5 
16363 0 5 6 19.2 18.5 
16458 0 5 9.3 19.2 18.5 
16362 0 5 6 20.3 18.5 
17356 0 5 9.3 17 19.5 
17298 0 5 7.1 19.2 19.5 
17299 0 5 7.1 20.3 19.5 
18163 0 5 6 19.2 20.5 
19157 0 5 9.3 18.1 21.5 
19998 0 5 7.1 19.2 22.5 
20900 0 5 7.1 21.4 23.5 
21796 0 5 7.1 17 24.5 
21761 0 5 6 21.4 24.5 
23657 0 5 9.3 18.1 26.5 
23600 0 5 7.1 21.4 26.5 
24558 0 5 9.3 19.2 27.5 
25481 0 5 10.4 21.4 28.5 
26357 0 5 9.3 18.1 29.5 
26262 0 5 6 20.3 29.5 
217 0 5 8.2 25.8 0.5 
2903 0 5 7.1 24.7 3.5 
4762 0 5 9.3 23.6 5.5 
4776 0 5 10.4 26.9 5.5 
6515 0 5 8.2 28 7.5 
7479 0 5 10.4 23.6 8.5 
7418 0 5 8.2 24.7 8.5 
7463 0 5 9.3 24.7 8.5 
7475 0 5 10.4 28 8.5 
11062 0 5 9.3 23.6 12.5 
11962 0 5 9.3 23.6 13.5 
12862 0 5 9.3 23.6 14.5 
13779 0 5 10.4 23.6 15.5 
13703 0 5 7.1 24.7 15.5 
13777 0 5 10.4 25.8 15.5 
14678 0 5 10.4 24.7 16.5 
15457 0 5 6 25.8 17.5 
16418 0 5 8.2 24.7 18.5 
17302 0 5 7.1 23.6 19.5 
17377 0 5 10.4 25.8 19.5 
18264 0 5 9.3 25.8 20.5 
19176 0 5 10.4 26.9 21.5 
19957 0 5 6 25.8 22.5 
20076 0 5 10.4 26.9 22.5 
20919 0 5 8.2 23.6 23.5 
20918 0 5 8.2 24.7 23.5 
20964 0 5 9.3 25.8 23.5 
21756 0 5 6 26.9 24.5 
21805 0 5 7.1 26.9 24.5 
22765 0 5 9.3 26.9 25.5 
25462 0 5 9.3 23.6 28.5 
25479 0 5 10.4 23.6 28.5 
25404 0 5 7.1 25.8 28.5 
25476 0 5 10.4 26.9 28.5 
26302 0 5 7.1 23.6 29.5 
268 0 5 9.3 30.2 0.5 
272 0 5 10.4 31.3 0.5 
2070 0 5 9.3 32.4 2.5 
2968 0 5 9.3 30.2 3.5 
2973 0 5 10.4 30.2 3.5 
4772 0 5 10.4 31.3 5.5 
6453 0 5 6 30.2 7.5 
6573 0 5 10.4 30.2 7.5 
6570 0 5 9.3 32.4 7.5 
8313 0 5 8.2 30.2 9.5 
9267 0 5 9.3 29.1 10.5 
10173 0 5 10.4 30.2 11.5 
10169 0 5 9.3 31.3 11.5 
10172 0 5 10.4 31.3 11.5 
11074 0 5 10.4 29.1 12.5 
11009 0 5 7.1 31.3 12.5 
11852 0 5 6 31.3 13.5 
13708 0 5 7.1 30.2 15.5 
13709 0 5 7.1 31.3 15.5 
14554 0 5 6 29.1 16.5 
15507 0 5 7.1 29.1 17.5 
15508 0 5 7.1 30.2 17.5 
15513 0 5 8.2 30.2 17.5 
15509 0 5 7.1 31.3 17.5 
17372 0 5 10.4 31.3 19.5 
18274 0 5 10.4 29.1 20.5 
18268 0 5 9.3 30.2 20.5 
19109 0 5 7.1 31.3 21.5 
19169 0 5 9.3 31.3 21.5 
20067 0 5 9.3 29.1 22.5 
20069 0 5 9.3 31.3 22.5 
20967 0 5 9.3 29.1 23.5 
20908 0 5 7.1 30.2 23.5 
23609 0 5 7.1 31.3 26.5 
25409 0 5 7.1 31.3 28.5 
25469 0 5 9.3 31.3 28.5 
26308 0 5 7.1 30.2 29.5 
359 0 5 12.6 1.6 0.5 
1321 0 5 15.9 0.5 1.5 
2103 0 5 11.5 2.7 2.5 
3904 0 5 11.5 3.8 4.5 
4920 0 5 14.8 0.5 5.5 
4919 0 5 14.8 1.6 5.5 
4918 0 5 14.8 2.7 5.5 
5818 0 5 14.8 2.7 6.5 
7623 0 5 15.9 2.7 8.5 
9421 0 5 15.9 0.5 10.5 
9358 0 5 12.6 2.7 10.5 
9356 0 5 12.6 4.9 10.5 
9365 0 5 13.7 4.9 10.5 
12119 0 5 14.8 1.6 13.5 
12063 0 5 13.7 2.7 13.5 
12901 0 5 11.5 0.5 14.5 
13019 0 5 14.8 1.6 14.5 
13022 0 5 15.9 1.6 14.5 
13025 0 5 15.9 4.9 14.5 
13922 0 5 15.9 1.6 15.5 
14701 0 5 11.5 0.5 16.5 
15717 0 5 14.8 3.8 17.5 
16501 0 5 11.5 0.5 18.5 
16503 0 5 11.5 2.7 18.5 
16504 0 5 11.5 3.8 18.5 
17517 0 5 14.8 3.8 19.5 
18361 0 5 13.7 0.5 20.5 
18304 0 5 11.5 3.8 20.5 
19260 0 5 12.6 0.5 21.5 
19321 0 5 15.9 0.5 21.5 
19319 0 5 14.8 1.6 21.5 
20160 0 5 12.6 0.5 22.5 
20156 0 5 12.6 4.9 22.5 
24661 0 5 13.7 0.5 27.5 
24721 0 5 15.9 0.5 27.5 
413 0 5 14.8 8.2 0.5 
1206 0 5 11.5 6 1.5 
1269 0 5 13.7 9.3 1.5 
1311 0 5 14.8 10.4 1.5 
1330 0 5 15.9 10.4 1.5 
2106 0 5 11.5 6 2.5 
3954 0 5 12.6 7.1 4.5 
4927 0 5 15.9 7.1 5.5 
5708 0 5 11.5 8.2 6.5 
5813 0 5 14.8 8.2 6.5 
5829 0 5 15.9 9.3 6.5 
6609 0 5 11.5 9.3 7.5 
8452 0 5 12.6 9.3 9.5 
8451 0 5 12.6 10.4 9.5 
9366 0 5 13.7 6 10.5 
9414 0 5 14.8 7.1 10.5 
11166 0 5 13.7 6 12.5 
11169 0 5 13.7 9.3 12.5 
12055 0 5 12.6 6 13.5 
12007 0 5 11.5 7.1 13.5 
12068 0 5 13.7 8.2 13.5 
12069 0 5 13.7 9.3 13.5 
13027 0 5 15.9 7.1 14.5 
12970 0 5 13.7 10.4 14.5 
13011 0 5 14.8 10.4 14.5 
15729 0 5 15.9 9.3 17.5 
18310 0 5 11.5 10.4 20.5 
21053 0 5 12.6 8.2 23.5 
21010 0 5 11.5 10.4 23.5 
22012 0 5 14.8 9.3 24.5 
22853 0 5 12.6 8.2 25.5 
22809 0 5 11.5 9.3 25.5 
23770 0 5 13.7 10.4 26.5 
24667 0 5 13.7 7.1 27.5 
24713 0 5 14.8 8.2 27.5 
25553 0 5 12.6 8.2 28.5 
25613 0 5 14.8 8.2 28.5 
26512 0 5 14.8 9.3 29.5 
406 0 5 14.8 15.9 0.5 
4931 0 5 15.9 11.5 5.5 
5807 0 5 14.8 14.8 6.5 
5834 0 5 15.9 14.8 6.5 
7571 0 5 13.7 11.5 8.5 
8446 0 5 12.6 15.9 9.5 
9432 0 5 15.9 12.6 10.5 
9407 0 5 14.8 14.8 10.5 
9315 0 5 11.5 15.9 10.5 
10274 0 5 13.7 14.8 11.5 
11112 0 5 11.5 12.6 12.5 
11114 0 5 11.5 14.8 12.5 
12072 0 5 13.7 12.6 13.5 
14809 0 5 14.8 12.6 16.5 
15710 0 5 14.8 11.5 17.5 
15706 0 5 14.8 15.9 17.5 
17510 0 5 14.8 11.5 19.5 
17534 0 5 15.9 14.8 19.5 
18371 0 5 13.7 11.5 20.5 
21131 0 5 15.9 11.5 23.5 
21012 0 5 11.5 12.6 23.5 
22010 0 5 14.8 11.5 24.5 
21912 0 5 11.5 12.6 24.5 
22847 0 5 12.6 14.8 25.5 
22934 0 5 15.9 14.8 25.5 
23808 0 5 14.8 13.7 26.5 
24612 0 5 11.5 12.6 27.5 
24732 0 5 15.9 12.6 27.5 
25608 0 5 14.8 13.7 28.5 
26509 0 5 14.8 12.6 29.5 
26447 0 5 12.6 14.8 29.5 
341 0 5 12.6 21.4 0.5 
401 0 5 14.8 21.4 0.5 
1305 0 5 14.8 17 1.5 
1338 0 5 15.9 19.2 1.5 
1301 0 5 14.8 21.4 1.5 
2205 0 5 14.8 17 2.5 
3078 0 5 13.7 19.2 3.5 
4036 0 5 15.9 17 4.5 
3943 0 5 12.6 19.2 4.5 
5716 0 5 11.5 17 6.5 
5803 0 5 14.8 19.2 6.5 
5719 0 5 11.5 20.3 6.5 
6618 0 5 11.5 19.2 7.5 
6740 0 5 15.9 21.4 7.5 
7603 0 5 14.8 19.2 8.5 
8443 0 5 12.6 19.2 9.5 
9319 0 5 11.5 20.3 10.5 
9320 0 5 11.5 21.4 10.5 
9321 0 5 11.5 22.5 10.5 
10303 0 5 14.8 19.2 11.5 
11237 0 5 15.9 18.1 12.5 
12041 0 5 12.6 21.4 13.5 
12040 0 5 12.6 22.5 13.5 
13036 0 5 15.9 17 14.5 
13000 0 5 14.8 22.5 14.5 
13936 0 5 15.9 17 15.5 
15618 0 5 11.5 19.2 17.5 
15619 0 5 11.5 20.3 17.5 
15621 0 5 11.5 22.5 17.5 
16636 0 5 15.9 17 18.5 
16543 0 5 12.6 19.2 18.5 
16519 0 5 11.5 20.3 18.5 
17421 0 5 11.5 22.5 19.5 
17440 0 5 12.6 22.5 19.5 
18378 0 5 13.7 19.2 20.5 
18340 0 5 12.6 22.5 20.5 
19338 0 5 15.9 19.2 21.5 
20144 0 5 12.6 18.1 22.5 
21138 0 5 15.9 19.2 23.5 
21916 0 5 11.5 17 24.5 
22000 0 5 14.8 22.5 24.5 
22841 0 5 12.6 21.4 25.5 
23716 0 5 11.5 17 26.5 
23800 0 5 14.8 22.5 26.5 
24616 0 5 11.5 17 27.5 
24677 0 5 13.7 18.1 27.5 
25542 0 5 12.6 20.3 28.5 
335 0 5 12.6 28 0.5 
2122 0 5 11.5 23.6 2.5 
2123 0 5 11.5 24.7 2.5 
3099 0 5 14.8 23.6 3.5 
3143 0 5 15.9 24.7 3.5 
5799 0 5 14.8 23.6 6.5 
5843 0 5 15.9 24.7 6.5 
7642 0 5 15.9 23.6 8.5 
8499 0 5 14.8 23.6 9.5 
8543 0 5 15.9 24.7 9.5 
8497 0 5 14.8 25.8 9.5 
8425 0 5 11.5 26.9 9.5 
9325 0 5 11.5 26.9 10.5 
9336 0 5 12.6 26.9 10.5 
9326 0 5 11.5 28 10.5 
10284 0 5 13.7 25.8 11.5 
11122 0 5 11.5 23.6 12.5 
11138 0 5 12.6 24.7 12.5 
11243 0 5 15.9 24.7 12.5 
11184 0 5 13.7 25.8 12.5 
11244 0 5 15.9 25.8 12.5 
12082 0 5 13.7 23.6 13.5 
12024 0 5 11.5 25.8 13.5 
12985 0 5 13.7 26.9 14.5 
13945 0 5 15.9 26.9 15.5 
14737 0 5 12.6 25.8 16.5 
14846 0 5 15.9 28 16.5 
15635 0 5 12.6 28 17.5 
16598 0 5 14.8 24.7 18.5 
17499 0 5 14.8 23.6 19.5 
17438 0 5 12.6 24.7 19.5 
17483 0 5 13.7 24.7 19.5 
17485 0 5 13.7 26.9 19.5 
18382 0 5 13.7 23.6 20.5 
18338 0 5 12.6 24.7 20.5 
18385 0 5 13.7 26.9 20.5 
20199 0 5 14.8 23.6 22.5 
20195 0 5 14.8 28 22.5 
21144 0 5 15.9 25.8 23.5 
21937 0 5 12.6 25.8 24.5 
22822 0 5 11.5 23.6 25.5 
22942 0 5 15.9 23.6 25.5 
22943 0 5 15.9 24.7 25.5 
23784 0 5 13.7 25.8 26.5 
24697 0 5 14.8 25.8 27.5 
24744 0 5 15.9 25.8 27.5 
24696 0 5 14.8 26.9 27.5 
24626 0 5 11.5 28 27.5 
25599 0 5 14.8 23.6 28.5 
330 0 5 11.5 32.4 0.5 
391 0 5 14.8 32.4 0.5 
3091 0 5 14.8 32.4 3.5 
3989 0 5 13.7 31.3 4.5 
4834 0 5 12.6 29.1 5.5 
6629 0 5 11.5 31.3 7.5 
6691 0 5 14.8 32.4 7.5 
7591 0 5 14.8 32.4 8.5 
8434 0 5 12.6 29.1 9.5 
10233 0 5 12.6 30.2 11.5 
10290 0 5 13.7 32.4 11.5 
10291 0 5 14.8 32.4 11.5 
12088 0 5 13.7 30.2 13.5 
12148 0 5 15.9 30.2 13.5 
12994 0 5 14.8 29.1 14.5 
14850 0 5 15.9 32.4 16.5 
15749 0 5 15.9 31.3 17.5 
15691 0 5 14.8 32.4 17.5 
16591 0 5 14.8 32.4 18.5 
20192 0 5 14.8 31.3 22.5 
20191 0 5 14.8 32.4 22.5 
21928 0 5 11.5 30.2 24.5 
22894 0 5 14.8 29.1 25.5 
22891 0 5 14.8 32.4 25.5 
23789 0 5 13.7 31.3 26.5 
26434 0 5 12.6 29.1 29.5 
2396 0 5 21.4 4.9 2.5 
3300 0 5 21.4 0.5 3.5 
3237 0 5 19.2 3.8 3.5 
4081 0 5 18.1 0.5 4.5 
5042 0 5 20.3 1.6 5.5 
5099 0 5 21.4 1.6 5.5 
5038 0 5 19.2 2.7 5.5 
4984 0 5 18.1 3.8 5.5 
5045 0 5 20.3 4.9 5.5 
6002 0 5 22.5 1.6 6.5 
5884 0 5 18.1 3.8 6.5 
6901 0 5 22.5 0.5 7.5 
6839 0 5 19.2 1.6 7.5 
6837 0 5 19.2 3.8 7.5 
6785 0 5 18.1 4.9 7.5 
7740 0 5 19.2 0.5 8.5 
7802 0 5 22.5 1.6 8.5 
7744 0 5 20.3 3.8 8.5 
9604 0 5 22.5 3.8 10.5 
9536 0 5 19.2 4.9 10.5 
10501 0 5 22.5 0.5 11.5 
10504 0 5 22.5 3.8 11.5 
10436 0 5 19.2 4.9 11.5 
11340 0 5 19.2 0.5 12.5 
11403 0 5 22.5 2.7 12.5 
11404 0 5 22.5 3.8 12.5 
12238 0 5 19.2 2.7 13.5 
13084 0 5 18.1 3.8 14.5 
13197 0 5 21.4 3.8 14.5 
15000 0 5 21.4 0.5 16.5 
14997 0 5 21.4 3.8 16.5 
15778 0 5 17 2.7 17.5 
16805 0 5 22.5 4.9 18.5 
17641 0 5 20.3 0.5 19.5 
17645 0 5 20.3 4.9 19.5 
18604 0 5 22.5 3.8 20.5 
18596 0 5 21.4 4.9 20.5 
19442 0 5 20.3 1.6 21.5 
19444 0 5 20.3 3.8 21.5 
20338 0 5 19.2 2.7 22.5 
21238 0 5 19.2 2.7 23.5 
22137 0 5 19.2 3.8 24.5 
22136 0 5 19.2 4.9 24.5 
23041 0 5 20.3 0.5 25.5 
23100 0 5 21.4 0.5 25.5 
22978 0 5 17 2.7 25.5 
23103 0 5 22.5 2.7 25.5 
22977 0 5 17 3.8 25.5 
23941 0 5 20.3 0.5 26.5 
23943 0 5 20.3 2.7 26.5 
23997 0 5 21.4 3.8 26.5 
24845 0 5 20.3 4.9 27.5 
25802 0 5 22.5 1.6 28.5 
26577 0 5 17 3.8 29.5 
26637 0 5 19.2 3.8 29.5 
26585 0 5 18.1 4.9 29.5 
26636 0 5 19.2 4.9 29.5 
535 0 5 19.2 6 0.5 
546 0 5 20.3 6 0.5 
606 0 5 22.5 6 0.5 
607 0 5 22.5 7.1 0.5 
533 0 5 19.2 8.2 0.5 
549 0 5 20.3 9.3 0.5 
1449 0 5 20.3 9.3 1.5 
1390 0 5 18.1 10.4 1.5 
2392 0 5 21.4 9.3 2.5 
2290 0 5 18.1 10.4 2.5 
3294 0 5 21.4 7.1 3.5 
3308 0 5 22.5 8.2 3.5 
5048 0 5 20.3 8.2 5.5 
5093 0 5 21.4 8.2 5.5 
5993 0 5 21.4 8.2 6.5 
6834 0 5 19.2 7.1 7.5 
6849 0 5 20.3 9.3 7.5 
11347 0 5 20.3 7.1 12.5 
11410 0 5 22.5 10.4 12.5 
12235 0 5 19.2 6 13.5 
12232 0 5 19.2 9.3 13.5 
13133 0 5 19.2 8.2 14.5 
14935 0 5 19.2 6 16.5 
15895 0 5 21.4 6 17.5 
15910 0 5 22.5 10.4 17.5 
17586 0 5 18.1 6 19.5 
20272 0 5 17 9.3 22.5 
20271 0 5 17 10.4 22.5 
20391 0 5 21.4 10.4 22.5 
21233 0 5 19.2 8.2 23.5 
21231 0 5 19.2 10.4 23.5 
22075 0 5 17 6 24.5 
22192 0 5 21.4 9.3 24.5 
23950 0 5 20.3 10.4 26.5 
24846 0 5 20.3 6 27.5 
24832 0 5 19.2 9.3 27.5 
25794 0 5 21.4 7.1 28.5 
25809 0 5 22.5 9.3 28.5 
26633 0 5 19.2 8.2 29.5 
26648 0 5 20.3 8.2 29.5 
26572 0 5 17 9.3 29.5 
26709 0 5 22.5 9.3 29.5 
1392 0 5 18.1 12.6 1.5 
1512 0 5 22.5 12.6 1.5 
1453 0 5 20.3 13.7 1.5 
1395 0 5 18.1 15.9 1.5 
2292 0 5 18.1 12.6 2.5 
4991 0 5 18.1 11.5 5.5 
5090 0 5 21.4 11.5 5.5 
5026 0 5 19.2 15.9 5.5 
5870 0 5 17 11.5 6.5 
5869 0 5 17 12.6 6.5 
5926 0 5 19.2 15.9 6.5 
6015 0 5 22.5 15.9 6.5 
6890 0 5 21.4 11.5 7.5 
7815 0 5 22.5 15.9 8.5 
9589 0 5 21.4 12.6 10.5 
9467 0 5 17 14.8 10.5 
10511 0 5 22.5 11.5 11.5 
13153 0 5 20.3 13.7 14.5 
13127 0 5 19.2 14.8 14.5 
13214 0 5 22.5 14.8 14.5 
14952 0 5 20.3 12.6 16.5 
14928 0 5 19.2 13.7 16.5 
15913 0 5 22.5 13.7 17.5 
16787 0 5 21.4 14.8 18.5 
16786 0 5 21.4 15.9 18.5 
18590 0 5 21.4 11.5 20.5 
18493 0 5 18.1 13.7 20.5 
18587 0 5 21.4 14.8 20.5 
20270 0 5 17 11.5 22.5 
21194 0 5 18.1 14.8 23.5 
21227 0 5 19.2 14.8 23.5 
22127 0 5 19.2 14.8 24.5 
22214 0 5 22.5 14.8 24.5 
22994 0 5 18.1 14.8 25.5 
23894 0 5 18.1 14.8 26.5 
24852 0 5 20.3 12.6 27.5 
24768 0 5 17 13.7 27.5 
24826 0 5 19.2 15.9 27.5 
25787 0 5 21.4 14.8 28.5 
25814 0 5 22.5 14.8 28.5 
26630 0 5 19.2 11.5 29.5 
26651 0 5 20.3 11.5 29.5 
522 0 5 19.2 20.3 0.5 
619 0 5 22.5 20.3 0.5 
620 0 5 22.5 21.4 0.5 
1397 0 5 18.1 18.1 1.5 
1458 0 5 20.3 19.2 1.5 
1460 0 5 20.3 21.4 1.5 
2384 0 5 21.4 18.1 2.5 
2418 0 5 22.5 19.2 2.5 
2300 0 5 18.1 21.4 2.5 
3199 0 5 18.1 20.3 3.5 
5057 0 5 20.3 18.1 5.5 
5058 0 5 20.3 19.2 5.5 
5083 0 5 21.4 19.2 5.5 
5118 0 5 22.5 19.2 5.5 
5061 0 5 20.3 22.5 5.5 
6016 0 5 22.5 17 6.5 
5864 0 5 17 18.1 6.5 
5959 0 5 20.3 20.3 6.5 
7699 0 5 18.1 20.3 8.5 
7660 0 5 17 22.5 8.5 
9525 0 5 19.2 17 10.5 
9584 0 5 21.4 18.1 10.5 
9619 0 5 22.5 20.3 10.5 
11383 0 5 21.4 19.2 12.5 
11262 0 5 17 20.3 12.5 
12198 0 5 18.1 19.2 13.5 
12200 0 5 18.1 21.4 13.5 
12201 0 5 18.1 22.5 13.5 
13157 0 5 20.3 18.1 14.5 
13123 0 5 19.2 19.2 14.5 
13180 0 5 21.4 22.5 14.5 
13998 0 5 18.1 19.2 15.5 
14022 0 5 19.2 20.3 15.5 
13960 0 5 17 22.5 15.5 
14061 0 5 20.3 22.5 15.5 
15823 0 5 19.2 19.2 17.5 
15822 0 5 19.2 20.3 17.5 
15761 0 5 17 21.4 17.5 
17660 0 5 20.3 21.4 19.5 
18581 0 5 21.4 21.4 20.5 
19362 0 5 17 20.3 21.5 
21221 0 5 19.2 21.4 23.5 
21321 0 5 22.5 22.5 23.5 
22218 0 5 22.5 19.2 24.5 
22120 0 5 19.2 22.5 24.5 
23022 0 5 19.2 20.3 25.5 
23000 0 5 18.1 21.4 25.5 
23001 0 5 18.1 22.5 25.5 
23985 0 5 21.4 17 26.5 
25665 0 5 17 17 28.5 
26561 0 5 17 21.4 29.5 
576 0 5 21.4 26.9 0.5 
575 0 5 21.4 28 0.5 
2362 0 5 20.3 23.6 2.5 
3219 0 5 19.2 23.6 3.5 
4103 0 5 18.1 24.7 4.5 
4177 0 5 21.4 25.8 4.5 
4226 0 5 22.5 28 4.5 
5078 0 5 21.4 24.7 5.5 
4957 0 5 17 25.8 5.5 
5064 0 5 20.3 25.8 5.5 
4956 0 5 17 26.9 5.5 
5076 0 5 21.4 26.9 5.5 
5965 0 5 20.3 26.9 6.5 
5976 0 5 21.4 26.9 6.5 
6879 0 5 21.4 23.6 7.5 
9579 0 5 21.4 23.6 10.5 
9515 0 5 19.2 28 10.5 
10359 0 5 17 23.6 11.5 
10476 0 5 21.4 26.9 11.5 
11302 0 5 18.1 23.6 12.5 
11363 0 5 20.3 24.7 12.5 
11255 0 5 17 28 12.5 
11426 0 5 22.5 28 12.5 
12279 0 5 21.4 23.6 13.5 
13179 0 5 21.4 23.6 14.5 
13225 0 5 22.5 26.9 14.5 
13955 0 5 17 28 15.5 
14066 0 5 20.3 28 15.5 
14917 0 5 19.2 25.8 16.5 
16717 0 5 19.2 25.8 18.5 
17679 0 5 21.4 23.6 19.5 
18562 0 5 20.3 23.6 20.5 
18578 0 5 21.4 24.7 20.5 
18517 0 5 19.2 25.8 20.5 
18577 0 5 21.4 25.8 20.5 
18576 0 5 21.4 26.9 20.5 
19358 0 5 17 24.7 21.5 
19416 0 5 19.2 26.9 21.5 
21275 0 5 21.4 28 23.5 
23123 0 5 22.5 24.7 25.5 
23978 0 5 21.4 24.7 26.5 
23964 0 5 20.3 25.8 26.5 
23976 0 5 21.4 26.9 26.5 
24819 0 5 19.2 23.6 27.5 
24866 0 5 20.3 28 27.5 
26604 0 5 18.1 25.8 29.5 
26616 0 5 19.2 26.9 29.5 
26606 0 5 18.1 28 29.5 
511 0 5 19.2 32.4 0.5 
2367 0 5 20.3 29.1 2.5 
3214 0 5 19.2 29.1 3.5 
5007 0 5 18.1 29.1 5.5 
4952 0 5 17 31.3 5.5 
7653 0 5 17 30.2 8.5 
7652 0 5 17 31.3 8.5 
8552 0 5 17 31.3 9.5 
8551 0 5 17 32.4 9.5 
9573 0 5 21.4 30.2 10.5 
10474 0 5 21.4 29.1 11.5 
10529 0 5 22.5 31.3 11.5 
10411 0 5 19.2 32.4 11.5 
11254 0 5 17 29.1 12.5 
12211 0 5 19.2 32.4 13.5 
15027 0 5 22.5 29.1 16.5 
15028 0 5 22.5 30.2 16.5 
15867 0 5 20.3 29.1 17.5 
15813 0 5 19.2 30.2 17.5 
16707 0 5 18.1 29.1 18.5 
17669 0 5 20.3 31.3 19.5 
18569 0 5 20.3 31.3 20.5 
19354 0 5 17 29.1 21.5 
21274 0 5 21.4 29.1 23.5 
21208 0 5 18.1 30.2 23.5 
22053 0 5 17 30.2 24.5 
22051 0 5 17 32.4 24.5 
23128 0 5 22.5 30.2 25.5 
23011 0 5 19.2 32.4 25.5 
24751 0 5 17 32.4 27.5 
26668 0 5 20.3 30.2 29.5 
26672 0 5 21.4 31.3 29.5 
1680 0 5 28 0.5 1.5 
1617 0 5 25.8 3.8 1.5 
2580 0 5 28 0.5 2.5 
3417 0 5 25.8 3.8 3.5 
4259 0 5 23.6 1.6 4.5 
5160 0 5 23.6 0.5 5.5 
7859 0 5 23.6 1.6 8.5 
8761 0 5 24.7 0.5 9.5 
8819 0 5 25.8 1.6 9.5 
8818 0 5 25.8 2.7 9.5 
8764 0 5 24.7 3.8 9.5 
9660 0 5 23.6 0.5 10.5 
9656 0 5 23.6 4.9 10.5 
11578 0 5 28 2.7 12.5 
13264 0 5 24.7 3.8 14.5 
14157 0 5 23.6 3.8 15.5 
14225 0 5 26.9 4.9 15.5 
15176 0 5 28 4.9 16.5 
16918 0 5 25.8 2.7 18.5 
16856 0 5 23.6 4.9 18.5 
18719 0 5 25.8 1.6 20.5 
20520 0 5 25.8 0.5 22.5 
20465 0 5 24.7 4.9 22.5 
21421 0 5 26.9 0.5 23.5 
21417 0 5 25.8 3.8 23.5 
23279 0 5 28 1.6 25.5 
24120 0 5 25.8 0.5 26.5 
24119 0 5 25.8 1.6 26.5 
1630 0 5 26.9 10.4 1.5 
3369 0 5 24.7 9.3 3.5 
4372 0 5 28 9.3 4.5 
5273 0 5 28 8.2 5.5 
7074 0 5 28 7.1 7.5 
7869 0 5 24.7 9.3 8.5 
7929 0 5 26.9 9.3 8.5 
9654 0 5 23.6 7.1 10.5 
11527 0 5 26.9 7.1 12.5 
11529 0 5 26.9 9.3 12.5 
13255 0 5 23.6 6 14.5 
13372 0 5 28 9.3 14.5 
13251 0 5 23.6 10.4 14.5 
14153 0 5 23.6 8.2 15.5 
14272 0 5 28 9.3 15.5 
15174 0 5 28 7.1 16.5 
15130 0 5 26.9 10.4 16.5 
16013 0 5 25.8 8.2 17.5 
19555 0 5 23.6 6 21.5 
19675 0 5 28 6 21.5 
19627 0 5 26.9 7.1 21.5 
20514 0 5 25.8 7.1 22.5 
20451 0 5 23.6 10.4 22.5 
22251 0 5 23.6 10.4 24.5 
22270 0 5 24.7 10.4 24.5 
23169 0 5 24.7 9.3 25.5 
24055 0 5 23.6 6 26.5 
24066 0 5 24.7 6 26.5 
24173 0 5 28 8.2 26.5 
25030 0 5 26.9 10.4 27.5 
26770 0 5 24.7 10.4 29.5 
709 0 5 25.8 12.6 0.5 
1631 0 5 26.9 11.5 1.5 
2474 0 5 24.7 14.8 2.5 
3375 0 5 24.7 15.9 3.5 
4369 0 5 28 12.6 4.5 
4333 0 5 26.9 13.7 4.5 
4368 0 5 28 13.7 4.5 
5149 0 5 23.6 12.6 5.5 
5208 0 5 25.8 13.7 5.5 
6049 0 5 23.6 12.6 6.5 
6166 0 5 28 15.9 6.5 
8869 0 5 28 12.6 9.5 
10550 0 5 23.6 11.5 11.5 
10571 0 5 24.7 11.5 11.5 
13271 0 5 24.7 11.5 14.5 
14233 0 5 26.9 13.7 15.5 
16034 0 5 26.9 14.8 17.5 
16967 0 5 28 14.8 18.5 
16935 0 5 26.9 15.9 18.5 
17750 0 5 23.6 11.5 19.5 
17771 0 5 24.7 11.5 19.5 
17808 0 5 25.8 13.7 19.5 
18706 0 5 25.8 15.9 20.5 
18766 0 5 28 15.9 20.5 
20450 0 5 23.6 11.5 22.5 
20471 0 5 24.7 11.5 22.5 
21431 0 5 26.9 11.5 23.5 
21435 0 5 26.9 15.9 23.5 
22370 0 5 28 11.5 24.5 
22249 0 5 23.6 12.6 24.5 
22367 0 5 28 14.8 24.5 
22246 0 5 23.6 15.9 24.5 
24132 0 5 26.9 12.6 26.5 
25032 0 5 26.9 12.6 27.5 
25034 0 5 26.9 14.8 27.5 
24946 0 5 23.6 15.9 27.5 
25967 0 5 28 14.8 28.5 
703 0 5 25.8 19.2 0.5 
681 0 5 24.7 22.5 0.5 
5142 0 5 23.6 20.3 5.5 
5140 0 5 23.6 22.5 5.5 
6104 0 5 25.8 18.1 6.5 
7062 0 5 28 20.3 7.5 
7880 0 5 24.7 21.4 8.5 
7881 0 5 24.7 22.5 8.5 
8776 0 5 24.7 17 9.5 
8864 0 5 28 18.1 9.5 
8778 0 5 24.7 19.2 9.5 
8779 0 5 24.7 20.3 9.5 
9642 0 5 23.6 20.3 10.5 
9701 0 5 25.8 21.4 10.5 
9761 0 5 28 21.4 10.5 
9741 0 5 26.9 22.5 10.5 
11561 0 5 28 21.4 12.5 
12465 0 5 28 17 13.5 
13364 0 5 28 18.1 14.5 
13242 0 5 23.6 20.3 14.5 
14240 0 5 26.9 21.4 15.5 
14260 0 5 28 22.5 15.5 
15981 0 5 24.7 22.5 17.5 
16876 0 5 24.7 17 18.5 
16937 0 5 26.9 18.1 18.5 
16960 0 5 28 22.5 18.5 
17864 0 5 28 18.1 19.5 
17743 0 5 23.6 19.2 19.5 
17778 0 5 24.7 19.2 19.5 
18640 0 5 23.6 22.5 20.5 
18700 0 5 25.8 22.5 20.5 
18741 0 5 26.9 22.5 20.5 
18760 0 5 28 22.5 20.5 
19544 0 5 23.6 18.1 21.5 
20565 0 5 28 17 22.5 
20444 0 5 23.6 18.1 22.5 
20440 0 5 23.6 22.5 22.5 
20560 0 5 28 22.5 22.5 
21438 0 5 26.9 19.2 23.5 
22305 0 5 25.8 17 24.5 
22362 0 5 28 20.3 24.5 
22280 0 5 24.7 21.4 24.5 
25960 0 5 28 22.5 28.5 
26865 0 5 28 17 29.5 
26802 0 5 25.8 20.3 29.5 
26862 0 5 28 20.3 29.5 
2439 0 5 23.6 23.6 2.5 
2438 0 5 23.6 24.7 2.5 
2498 0 5 25.8 24.7 2.5 
4298 0 5 25.8 24.7 4.5 
4297 0 5 25.8 25.8 4.5 
5139 0 5 23.6 23.6 5.5 
6159 0 5 28 23.6 6.5 
7886 0 5 24.7 28 8.5 
8795 0 5 25.8 28 9.5 
10539 0 5 23.6 23.6 11.5 
10537 0 5 23.6 25.8 11.5 
12399 0 5 25.8 23.6 13.5 
13358 0 5 28 24.7 14.5 
15143 0 5 26.9 24.7 16.5 
16958 0 5 28 24.7 18.5 
16886 0 5 24.7 28 18.5 
17857 0 5 28 25.8 19.5 
17785 0 5 24.7 26.9 19.5 
17786 0 5 24.7 28 19.5 
18744 0 5 26.9 25.8 20.5 
18696 0 5 25.8 26.9 20.5 
19644 0 5 26.9 25.8 21.5 
22285 0 5 24.7 26.9 24.5 
22296 0 5 25.8 26.9 24.5 
23242 0 5 26.9 23.6 25.5 
23245 0 5 26.9 26.9 25.5 
23246 0 5 26.9 28 25.5 
24142 0 5 26.9 23.6 26.5 
24084 0 5 24.7 25.8 26.5 
24145 0 5 26.9 26.9 26.5 
24146 0 5 26.9 28 26.5 
24995 0 5 25.8 28 27.5 
26782 0 5 24.7 23.6 29.5 
26842 0 5 26.9 23.6 29.5 
26795 0 5 25.8 28 29.5 
3387 0 5 24.7 29.1 3.5 
3451 0 5 28 32.4 3.5 
4351 0 5 28 32.4 4.5 
6148 0 5 26.9 30.2 6.5 
6934 0 5 23.6 29.1 7.5 
7053 0 5 28 30.2 7.5 
7050 0 5 26.9 32.4 7.5 
8793 0 5 25.8 30.2 9.5 
10533 0 5 23.6 30.2 11.5 
10588 0 5 24.7 30.2 11.5 
10653 0 5 28 30.2 11.5 
13352 0 5 28 31.3 14.5 
15153 0 5 28 30.2 16.5 
15934 0 5 23.6 29.1 17.5 
15987 0 5 24.7 29.1 17.5 
15933 0 5 23.6 30.2 17.5 
16049 0 5 26.9 31.3 17.5 
16947 0 5 26.9 29.1 18.5 
16954 0 5 28 29.1 18.5 
16890 0 5 24.7 32.4 18.5 
16951 0 5 28 32.4 18.5 
17793 0 5 25.8 30.2 19.5 
17789 0 5 24.7 31.3 19.5 
17850 0 5 26.9 32.4 19.5 
18752 0 5 28 31.3 20.5 
18751 0 5 28 32.4 20.5 
19592 0 5 25.8 31.3 21.5 
19649 0 5 26.9 31.3 21.5 
19652 0 5 28 31.3 21.5 
20432 0 5 23.6 31.3 22.5 
22234 0 5 23.6 29.1 24.5 
22350 0 5 26.9 32.4 24.5 
23252 0 5 28 31.3 25.5 
25050 0 5 26.9 32.4 27.5 
26847 0 5 26.9 29.1 29.5 
26788 0 5 24.7 30.2 29.5 
1739 0 5 30.2 1.6 1.5 
2582 0 5 29.1 1.6 2.5 
3596 0 5 32.4 4.9 3.5 
4381 0 5 29.1 0.5 4.5 
4500 0 5 32.4 0.5 4.5 
4442 0 5 31.3 1.6 4.5 
4499 0 5 32.4 1.6 4.5 
5340 0 5 30.2 0.5 5.5 
5282 0 5 29.1 1.6 5.5 
5339 0 5 30.2 1.6 5.5 
5343 0 5 31.3 2.7 5.5 