ITEM: TIMESTEP
0
ITEM: NUMBER OF ATOMS
475
ITEM: BOX BOUNDS pp pp pp
7.1354277009520928e-01 3.3076457229894366e+01
7.1354277009520928e-01 3.3076457229894366e+01
7.1354277009520928e-01 3.3076457229894366e+01
ITEM: ATOMS id mol type x y z 
27411 322 4 1.43943 7.84188 18.0056 
27350 319 4 1.44844 7.83466 18.0083 
27361 319 4 2.25864 8.47913 18.0191 
27410 322 4 2.24654 8.49024 18.0149 
27403 322 4 1.17087 8.58066 18.6238 
27344 319 4 1.1805 8.57701 18.6225 
27360 319 4 2.70816 9.34875 18.3561 
27409 322 4 2.69347 9.36078 18.353 
27349 319 4 1.81036 9.33406 18.7964 
27402 322 4 1.79789 9.34011 18.7975 
27343 319 4 0.912566 9.31937 19.2366 
27400 322 4 0.902306 9.31944 19.242 
27401 322 4 1.52933 10.0789 19.4157 
27348 319 4 1.54242 10.0764 19.4105 
27358 319 4 2.17228 10.8335 19.5845 
27407 322 4 2.15634 10.8383 19.5894 
27418 322 4 1.31622 11.0494 20.1564 
27357 319 4 1.33048 11.0507 20.1466 
27359 319 4 2.67655 10.2105 18.9291 
27408 322 4 2.66045 10.2202 18.9293 
27110 306 4 0.882872 22.1318 12.7869 
27109 306 4 1.12381 22.2185 11.7838 
27108 306 4 0.829234 22.2891 10.7938 
27149 308 4 1.15426 30.9243 23.3229 
27150 308 4 1.14474 29.9003 23.4752 
27335 318 4 10.5669 10.8893 17.7892 
27334 318 4 10.1114 11.1799 16.9061 
27336 318 4 10.786 11.0661 18.7855 
27333 318 4 9.54154 11.8602 16.3728 
27332 318 4 9.01005 12.7477 16.3322 
27331 318 4 8.65934 13.6048 16.7951 
27325 318 4 9.17202 13.1193 17.5033 
27324 318 4 9.68469 12.6339 18.2116 
27326 318 4 9.61312 12.247 17.2922 
27327 318 4 10.1258 11.7616 18.0004 
27330 318 4 9.24359 13.5062 18.4227 
27341 318 4 8.80249 14.3785 18.6339 
27342 318 4 8.58336 14.2017 17.6376 
27329 318 4 9.75627 13.0208 19.131 
27328 318 4 10.1974 12.1485 18.9198 
27338 318 4 10.3593 12.5201 20.091 
27337 318 4 10.7101 11.663 19.628 
27340 318 4 9.25801 14.0879 19.517 
27339 318 4 9.82785 13.4076 20.0504 
27314 317 4 16.1328 21.527 7.07727 
27315 317 4 15.6423 22.0065 6.30179 
27307 317 4 16.7991 22.1774 6.71252 
27316 317 4 15.6404 22.7061 5.53864 
27308 317 4 16.5529 22.767 5.94321 
27317 317 4 16.1274 23.4384 4.9923 
27437 323 4 21.8805 5.97078 11.8066 
27377 320 4 21.877 5.98453 11.7936 
27125 307 4 20.1457 5.43334 31.2096 
27240 313 4 20.1677 5.39266 31.2143 
27123 307 4 22.1129 5.52095 30.8592 
27241 313 4 21.1278 5.26423 30.8488 
27124 307 4 21.1015 5.30102 30.8344 
27242 313 4 22.1366 5.49532 30.8777 
27239 313 4 19.5136 5.84619 31.8764 
27126 307 4 19.5016 5.88243 31.8844 
27232 313 4 20.7386 5.99931 31.7676 
27233 313 4 21.7231 6.05064 31.5993 
27117 307 4 21.2052 5.95831 31.5809 
27237 313 4 19.6953 7.18792 0.98557 
27128 307 4 19.709 7.19701 1.01451 
27236 313 4 20.4825 7.7166 1.40117 
27129 307 4 20.5049 7.71025 1.43273 
27247 313 4 21.4913 7.94769 1.43006 
27130 307 4 21.5163 7.93018 1.45755 
27301 316 4 21.339 10.1982 9.69061 
27287 316 4 21.8798 7.6115 9.82124 
27304 316 4 20.6502 7.45725 9.80663 
27293 316 4 21.3936 6.73822 9.85347 
27303 316 4 20.3665 8.45162 9.75507 
27302 316 4 20.6186 9.45488 9.7126 
27292 316 4 21.3663 8.46821 9.77204 
27291 316 4 21.8525 9.34149 9.7398 
27436 323 4 21.1242 6.67415 11.7357 
27378 320 4 21.1231 6.69032 11.7208 
27425 323 4 21.9706 7.20605 11.7614 
27368 320 4 21.8219 7.71382 11.7114 
27435 323 4 20.8214 7.66257 11.6786 
27379 320 4 20.8238 7.67954 11.6593 
27369 320 4 21.7668 9.44311 11.6292 
27424 323 4 21.9352 8.20455 11.7189 
27434 323 4 21.0534 8.67117 11.6506 
27380 320 4 21.0594 8.68713 11.6258 
27433 323 4 21.7579 9.42972 11.6592 
27238 313 4 19.3407 6.5033 32.6575 
27127 307 4 19.3417 6.52799 32.6779 
27231 313 4 20.3251 6.55463 32.4892 
27118 307 4 20.4052 6.24902 32.1059 
27120 307 4 21.4126 7.27289 33.0739 
27116 307 4 22.1089 6.3249 31.8024 
27119 307 4 20.5089 6.90631 32.8524 
27235 313 4 21.8805 7.21261 32.8741 
27115 307 4 21.3089 6.6156 32.3274 
27229 313 4 21.3096 6.60596 32.3209 
27121 307 4 22.2126 6.98219 32.5489 
27230 313 4 20.896 7.16128 33.0425 
27255 314 4 19.2455 15.2722 6.01385 
27183 310 4 19.2492 15.2597 5.99918 
27266 314 4 20.2411 15.0204 6.14489 
27184 310 4 20.2451 15.0086 6.12943 
27185 310 4 21.0867 14.9616 6.7306 
27265 314 4 21.0824 14.9736 6.74641 
27181 310 4 17.8315 16.0681 7.1555 
27257 314 4 17.8283 16.0843 7.16819 
27256 314 4 18.3623 15.6616 6.38841 
27182 310 4 18.3657 15.6475 6.37475 
27174 310 4 18.7503 15.9191 7.52122 
27250 314 4 18.7468 15.935 7.53447 
27249 314 4 19.4554 15.5289 6.9573 
27175 310 4 19.4591 15.5149 6.94305 
27172 310 4 19.6691 15.77 7.88693 
27248 314 4 19.6653 15.7857 7.90076 
27254 314 4 20.3739 15.3796 7.32359 
27176 310 4 20.3779 15.3658 7.30876 
27186 310 4 21.5484 15.1312 7.64161 
27264 314 4 21.5441 15.1444 7.65724 
27258 314 4 17.7865 16.427 8.14427 
27180 310 4 17.7897 16.4089 8.13224 
27259 314 4 18.2482 16.5978 9.0551 
27179 310 4 18.2514 16.5785 9.04325 
27190 310 4 19.093 16.5314 9.64442 
27251 314 4 18.9567 16.1917 8.47793 
27173 310 4 18.9602 16.1742 8.46509 
27260 314 4 19.0895 16.551 9.65662 
27178 310 4 19.879 16.0252 8.8308 
27252 314 4 19.8752 16.0424 8.84421 
27253 314 4 20.5838 15.6364 8.26704 
27177 310 4 20.5878 15.621 8.25264 
27187 310 4 21.5066 15.4719 8.61835 
27263 314 4 21.5023 15.487 8.63332 
27262 314 4 20.9683 15.9097 9.4131 
27188 310 4 20.9724 15.8925 9.3991 
27189 310 4 20.089 16.2804 9.77467 
27261 314 4 20.0851 16.2992 9.78766 
27306 317 4 17.7116 22.2382 7.11709 
27312 317 4 17.9578 21.6486 7.88641 
27313 317 4 16.9803 21.396 7.65728 
27323 317 4 18.8034 22.2173 7.70326 
27318 317 4 16.973 24.007 4.80915 
27310 317 4 18.1317 23.4782 5.98303 
27309 317 4 17.2192 23.4174 5.57847 
27319 317 4 17.9505 24.2597 5.03828 
27320 317 4 18.7981 24.1287 5.61829 
27311 317 4 18.3779 22.8887 6.75235 
27305 317 4 17.4654 22.8278 6.34778 
27322 317 4 19.2905 22.9495 7.15692 
27321 317 4 19.2885 23.6491 6.39377 
27089 305 4 20.0818 25.3123 23.0447 
27038 302 4 20.1017 25.3162 23.0676 
27090 305 4 20.4197 24.6567 23.7713 
27027 302 4 20.4425 24.6626 23.7945 
27021 302 4 20.8194 25.5531 24.0498 
27081 305 4 20.7976 25.546 24.0291 
27088 305 4 20.0369 26.2687 22.651 
27037 302 4 20.0541 26.2719 22.6722 
27036 302 4 20.3126 27.2735 22.7143 
27087 305 4 20.297 27.2699 22.6956 
27026 302 4 20.6252 26.3577 23.4886 
27080 305 4 20.6062 26.352 23.469 
27025 302 4 21.002 27.2481 23.7439 
27079 305 4 20.984 27.2413 23.7268 
27093 305 4 22.0539 25.6008 25.8782 
27091 305 4 20.9602 24.4777 24.636 
27028 302 4 20.9853 24.4862 24.6583 
27092 305 4 21.5583 24.8233 25.4072 
27029 302 4 21.5846 24.8342 25.4275 
27022 302 4 21.3904 25.6389 24.8663 
27082 305 4 21.3669 25.6293 24.8471 
27020 302 4 21.1962 26.4435 24.3051 
27077 305 4 21.1754 26.4353 24.2869 
27078 305 4 21.5533 27.3246 24.5447 
27024 302 4 21.573 27.334 24.5604 
27023 302 4 21.7672 26.5293 25.1216 
27083 305 4 21.7447 26.5186 25.1049 
27095 305 4 22.2691 27.5584 25.5291 
27030 302 4 22.0798 25.6135 25.8959 
27085 305 4 21.3907 28.3929 23.9378 
27034 302 4 21.4071 28.4008 23.9519 
27086 305 4 20.7926 28.0473 23.1666 
27035 302 4 20.8078 28.0528 23.1828 
27084 305 4 21.9311 28.2139 24.8025 
27033 302 4 21.9499 28.2244 24.8157 
27376 320 4 22.8836 5.75129 11.8584 
27426 323 4 22.8879 5.74092 11.8722 
27375 320 4 23.8732 6.0531 11.8978 
27427 323 4 23.8763 6.04615 11.9151 
27122 307 4 22.9088 6.03419 31.2774 
27243 313 4 22.9238 6.024 31.2933 
27246 313 4 22.4514 7.81927 1.0645 
27131 307 4 22.4721 7.79787 1.0823 
27393 321 4 24.4963 9.18991 2.3102 
27170 309 4 24.4976 9.19093 2.3447 
27392 321 4 24.6516 9.66321 1.40259 
27169 309 4 24.6405 9.64519 1.4254 
27159 309 4 25.3862 9.6443 2.41532 
27391 321 4 25.2398 10.2536 0.788316 
27384 321 4 25.4595 9.88163 1.94996 
27158 309 4 25.748 10.1592 1.6381 
27168 309 4 25.2212 10.2207 0.790261 
27383 321 4 26.1855 10.4514 1.56466 
27157 309 4 26.6365 10.6126 1.70871 
27382 321 4 26.9934 10.6698 2.11203 
27166 309 4 26.9983 11.1274 0.93149 
27389 321 4 27.011 11.1637 0.975454 
27153 309 4 26.2747 10.0977 2.48593 
27381 321 4 26.2675 10.1 2.49734 
27385 321 4 25.5415 9.53026 2.88265 
27394 321 4 24.8156 8.96047 3.26796 
27171 309 4 24.8309 8.97963 3.30185 
27395 321 4 25.5239 9.03639 4.01922 
27160 309 4 25.5511 9.06792 4.04038 
27154 309 4 25.9129 9.5828 3.26315 
27156 309 4 27.1633 10.551 2.55655 
27162 309 4 27.3282 9.97466 4.1816 
27387 321 4 27.0754 10.3185 3.04471 
27386 321 4 26.3495 9.74868 3.43002 
27155 309 4 26.8015 10.0362 3.33377 
27397 321 4 27.2951 9.94653 4.20636 
27396 321 4 26.4315 9.39731 4.3627 
27161 309 4 26.4652 9.43212 4.36239 
27300 316 4 22.3345 10.4824 9.69498 
27288 316 4 22.8796 7.62809 9.8382 
27295 316 4 23.3931 6.77139 9.8874 
27294 316 4 22.3976 6.48717 9.88303 
27296 316 4 24.1135 7.51471 9.86541 
27289 316 4 23.3658 8.50138 9.80597 
27298 316 4 24.0819 9.51233 9.77138 
27290 316 4 22.8523 9.35808 9.75677 
27286 316 4 22.3661 8.48479 9.789 
27297 316 4 24.3656 8.51796 9.82294 
27299 316 4 23.3385 10.2314 9.72454 
27420 323 4 22.8525 6.73943 11.8297 
27366 320 4 23.3466 6.90061 11.8306 
27419 323 4 22.8171 7.73794 11.7872 
27421 323 4 23.699 7.27132 11.8555 
27362 320 4 22.82 7.74811 11.7635 
27365 320 4 23.8181 7.78239 11.8156 
27367 320 4 22.3485 6.86632 11.7786 
27428 323 4 24.5808 6.8047 11.9237 
27374 320 4 24.5806 6.80909 11.9011 
27429 323 4 24.8128 7.8133 11.8957 
27373 320 4 24.8162 7.81668 11.8676 
27364 320 4 23.2915 8.6299 11.7484 
27422 323 4 23.6636 8.26983 11.8129 
27423 323 4 22.7817 8.73644 11.7447 
27371 320 4 23.763 9.51168 11.7334 
27431 323 4 23.7536 9.50509 11.7678 
27363 320 4 22.2934 8.59561 11.6963 
27372 320 4 24.5169 8.8059 11.8062 
27430 323 4 24.51 8.80172 11.8387 
27432 323 4 22.7463 9.73495 11.7021 
27370 320 4 22.7564 9.74492 11.6686 
27244 313 4 23.2784 6.70862 31.9842 
27133 307 4 23.2761 6.70322 31.977 
27132 307 4 23.1163 7.34877 32.7705 
27245 313 4 23.1055 7.36573 32.7654 
27234 313 4 22.294 6.65729 32.1526 
27167 309 4 26.0843 10.7632 32.9724 
27390 321 4 26.1034 10.8028 32.9949 
27452 324 4 24.8216 13.8435 2.29741 
27451 324 4 24.4165 14.7903 2.40375 
27444 324 4 23.8734 12.7557 4.00564 
27453 324 4 24.9069 12.8633 2.61984 
27455 324 4 24.1186 11.7922 4.11368 
27454 324 4 24.6496 12.1125 3.28464 
27443 324 4 24.2675 13.2913 3.25871 
27438 324 4 23.6282 13.7192 3.89759 
27441 324 4 23.383 14.6826 3.78955 
27442 324 4 24.0223 14.2547 3.15067 
27449 324 4 23.1378 15.6461 3.6815 
27450 324 4 23.8002 15.4501 2.91036 
27456 324 4 23.4562 11.9882 4.88483 
27445 324 4 22.8398 12.6481 5.39144 
27439 324 4 23.234 13.1836 4.64452 
27446 324 4 22.4347 13.5949 5.49778 
27440 324 4 22.9888 14.1471 4.53647 
27447 324 4 22.3494 14.575 5.17535 
27448 324 4 22.6068 15.3258 4.51054 
27076 304 4 27.4522 17.3047 3.79807 
27075 304 4 27.6761 17.8032 4.67743 
27281 315 4 23.0951 22.201 22.1804 
27227 312 4 23.1241 22.2272 22.1555 
27280 315 4 22.7186 21.7553 23.0357 
27228 312 4 22.7416 21.7744 23.0043 
27217 312 4 22.6365 21.743 24.0338 
27279 315 4 22.6224 21.7313 24.0662 
27218 312 4 22.837 22.1414 24.9681 
27278 315 4 22.8324 22.1355 24.996 
27226 312 4 23.6817 22.98 21.7148 
27282 315 4 23.651 22.949 21.7296 
27225 312 4 24.2649 23.8312 21.8002 
27283 315 4 24.2375 23.7989 21.8041 
27267 315 4 23.7649 23.3293 23.6899 
27210 312 4 23.7772 23.347 23.6786 
27271 315 4 23.2417 22.5423 23.3628 
27211 312 4 23.2068 22.545 23.8562 
27216 312 4 23.4507 22.7871 22.917 
27272 315 4 23.708 23.1391 22.7098 
27215 312 4 24.021 23.5891 22.7394 
27273 315 4 24.2311 23.9261 23.0369 
27268 315 4 24.2881 24.1163 24.017 
27214 312 4 24.3475 24.1491 23.5009 
27223 312 4 24.9179 24.9511 23.3233 
27285 315 4 24.9074 24.9272 23.3136 
27284 315 4 24.6974 24.523 22.3838 
27224 312 4 24.7173 24.5527 22.389 
27270 315 4 23.2987 22.7324 24.3429 
27212 312 4 23.5333 23.105 24.6177 
27269 315 4 23.8218 23.5194 24.67 
27277 315 4 23.2923 22.8596 25.5757 
27276 315 4 23.8787 23.7095 25.6502 
27220 312 4 23.8727 23.714 25.6424 
27219 312 4 23.2895 22.8629 25.5569 
27213 312 4 24.1037 23.907 24.4401 
27222 312 4 24.8128 24.9197 24.3528 
27274 315 4 24.8112 24.9033 24.3441 
27221 312 4 24.4302 24.4669 25.2016 
27275 315 4 24.4347 24.4576 25.1994 
27032 302 4 22.2907 27.5708 25.5427 
27031 302 4 22.3383 26.6151 25.9381 
27094 305 4 22.314 26.6019 25.9228 
27003 301 4 30.8866 3.90517 0.74043 
27202 311 4 30.2997 3.15019 0.994284 
27010 301 4 30.3023 3.13718 1.00266 
27009 301 4 30.7983 3.40514 1.871 
27203 311 4 30.797 3.41894 1.86169 
27194 311 4 30.8866 3.91546 0.72968 
27204 311 4 31.4755 4.02578 2.35488 
27008 301 4 31.4746 4.01287 2.36614 
27195 311 4 31.4745 4.35325 1.40998 
27002 301 4 31.4728 4.34302 1.42217 
27018 301 4 32.6434 5.54886 1.84167 
27007 301 4 32.0572 5.11101 1.15993 
27196 311 4 32.0614 5.11852 1.14537 
27206 311 4 32.6493 5.55631 1.82567 
27205 311 4 32.1535 4.80811 2.3417 
27019 301 4 32.15 4.79752 2.3554 
27017 301 4 32.8227 6.06555 0.962599 
27207 311 4 32.83 6.06989 0.945078 
27013 301 4 30.7921 4.54881 30.9639 
27199 311 4 30.7935 4.55334 30.9514 
27014 301 4 31.4674 5.33346 30.9532 
27198 311 4 31.4715 5.33567 30.9382 
27004 301 4 30.8848 4.23532 32.1594 
27201 311 4 30.117 3.29155 32.348 
27012 301 4 30.2987 3.79747 31.4776 
27011 301 4 30.1194 3.28078 32.3567 
27200 311 4 30.2977 3.80514 31.4674 
27193 311 4 30.8856 4.24293 32.1477 
27015 301 4 32.1437 5.94119 31.4483 
27209 311 4 32.15 5.94251 31.4314 
27005 301 4 31.4692 5.00331 31.8971 
27191 311 4 31.4735 4.68072 32.828 
27197 311 4 32.0604 5.44599 32.5634 
27001 301 4 31.471 4.67316 32.8411 
27006 301 4 32.0554 5.44116 32.5789 
27192 311 4 31.4725 5.0082 31.8831 
27165 309 4 27.7185 11.2157 1.67001 
27388 321 4 27.7193 11.2396 1.72672 
27399 321 4 28.0386 11.0102 2.68448 
27164 309 4 28.0519 11.0044 2.62716 
27398 321 4 27.8833 10.5369 3.59209 
27163 309 4 27.909 10.5502 3.54647 
27412 322 4 32.8513 7.58943 18.3277 
27351 319 4 32.8576 7.58801 18.3267 
27352 319 4 32.0158 7.80528 18.8888 
27413 322 4 32.0112 7.80054 18.8947 
27414 322 4 31.5071 8.41864 19.5548 
27353 319 4 31.5115 8.42825 19.5442 
27415 322 4 31.4741 9.2781 20.131 
27354 319 4 31.4799 9.29 20.1172 
27404 322 4 32.6382 8.55999 19.0683 
27345 319 4 32.6456 8.56233 19.0627 
27346 319 4 32.3777 9.30468 19.6769 
27405 322 4 32.3696 9.29877 19.6865 
27406 322 4 32.9967 10.0582 19.8602 
27347 319 4 33.0075 10.0617 19.8508 
27356 319 4 32.7396 10.8041 20.465 
27416 322 4 31.921 10.1486 20.4691 
27417 322 4 32.7281 10.797 20.4784 
27355 319 4 31.9294 10.1596 20.4542 
27016 301 4 32.6398 6.20915 32.3166 
27208 311 4 32.6473 6.21125 32.2988 
27066 304 4 28.5264 16.515 2.30719 
27067 304 4 29.5367 16.4353 2.09515 
27068 304 4 30.5235 16.6156 2.3512 
27065 304 4 27.7635 16.8332 2.9305 
27466 325 4 32.4313 12.0695 16.746 
27050 303 4 32.4231 12.1003 16.7647 
27049 303 4 32.5862 12.9016 16.1298 
27465 325 4 32.5834 12.8732 16.1112 
27475 325 4 32.8976 14.8326 16.3605 
27047 303 4 32.9197 14.8579 16.3785 
27048 303 4 32.768 13.911 15.9884 
27464 325 4 32.754 13.8845 15.9701 
27459 325 4 32.5421 12.859 17.3498 
27042 303 4 32.5394 12.8891 17.3682 
27043 303 4 32.4833 12.7726 18.3598 
27460 325 4 32.4916 12.7409 18.3416 
27051 303 4 32.3222 11.7217 17.723 
27467 325 4 32.3387 11.6889 17.7043 
27039 303 4 32.6558 13.678 17.9717 
27457 325 4 32.6529 13.6484 17.9536 
27041 303 4 32.7119 13.7945 16.9801 
27458 325 4 32.7035 13.7665 16.9619 
27463 325 4 32.8143 14.5559 17.5657 
27040 303 4 32.8282 14.5834 17.5836 
27045 303 4 32.7721 14.4669 18.5752 
27462 325 4 32.7637 14.4378 18.5574 
27474 325 4 32.9756 15.4634 17.1777 
27046 303 4 33.0007 15.4887 17.1955 
27473 325 4 32.9672 15.6078 18.2029 
27057 303 4 32.9893 15.6343 18.2204 
27052 303 4 32.3108 11.8673 18.748 
27053 303 4 32.3918 12.498 19.5649 
27469 325 4 32.4082 12.4642 19.5468 
27468 325 4 32.3302 11.8334 18.7295 
27054 303 4 32.5435 13.445 19.955 
27470 325 4 32.5518 13.4123 19.9371 
27044 303 4 32.5996 13.5615 18.9634 
27461 325 4 32.6024 13.5303 18.9454 
27055 303 4 32.7253 14.4544 19.8136 
27471 325 4 32.7225 14.4236 19.796 
27056 303 4 32.8885 15.2557 19.1787 
27472 325 4 32.8745 15.2273 19.1613 
27059 304 4 28.6064 17.1193 3.38629 
27064 304 4 28.5627 17.6043 4.25975 
27058 304 4 29.4493 17.4054 3.84207 
27060 304 4 29.493 16.9204 2.96861 
27061 304 4 30.3359 17.2065 3.4244 
27069 304 4 31.2225 17.0075 3.00672 
27062 304 4 30.2922 17.6915 4.29786 
27070 304 4 31.4463 17.506 3.88608 
27063 304 4 29.4056 17.8904 4.71554 
27074 304 4 28.3751 18.1951 5.33295 
27073 304 4 29.3619 18.3754 5.589 
27071 304 4 31.1351 17.9776 4.75365 
27072 304 4 30.3721 18.2958 5.37696 
27104 306 4 29.7305 22.1846 10.8787 
27098 306 4 30.9653 22.2112 10.982 
27105 306 4 30.4424 22.2643 10.1312 
27099 306 4 31.9646 22.2414 10.9575 
27102 306 4 31.0117 22.075 12.7081 
27114 306 4 29.7842 22.0273 12.8718 
27097 306 4 30.4889 22.128 11.8573 
27103 306 4 29.4896 22.0978 11.8818 
27096 306 4 31.4882 22.1582 11.8328 
27101 306 4 32.011 22.1051 12.6836 
27100 306 4 32.4874 22.1883 11.8083 
27113 306 4 30.5353 21.9918 13.5834 
27111 306 4 32.5339 22.0521 13.5344 
27112 306 4 31.5418 22.0008 13.826 
27107 306 4 32.441 22.3246 10.0822 
27106 306 4 31.4345 22.3155 9.83963 
27142 308 4 30.4343 28.844 22.2754 
27137 308 4 31.1015 30.978 22.2447 
27136 308 4 30.8556 30.0095 22.2838 
27143 308 4 29.9684 29.7046 21.9375 
27144 308 4 29.9779 30.7286 21.7852 
27145 308 4 30.4603 31.6416 21.8593 
27146 308 4 31.2864 32.199 22.14 
27141 308 4 31.2508 28.3774 22.7083 
27135 308 4 31.4968 29.3459 22.6692 
27152 308 4 32.1992 28.4298 23.1203 
27151 308 4 33.0252 28.9873 23.401 
27134 308 4 31.7428 30.3144 22.6302 
27140 308 4 32.384 29.6508 23.0156 
27139 308 4 32.63 30.6194 22.9765 
27138 308 4 31.9887 31.283 22.5911 
27147 308 4 32.2347 32.2515 22.552 
27148 308 4 33.0513 31.7849 22.985 
ITEM: TIMESTEP
50000
ITEM: NUMBER OF ATOMS
475
ITEM: BOX BOUNDS pp pp pp
7.1354277009520928e-01 3.3076457229894366e+01
7.1354277009520928e-01 3.3076457229894366e+01
7.1354277009520928e-01 3.3076457229894366e+01
ITEM: ATOMS id mol type x y z 
27412 322 4 1.33997 4.64308 18.9883 
27351 319 4 1.34191 4.66744 18.9771 
27411 322 4 2.18959 4.96942 18.4948 
27350 319 4 2.19037 5.00482 18.489 
27410 322 4 2.99767 5.61348 18.4309 
27361 319 4 2.99508 5.65395 18.4347 
27405 322 4 1.27799 6.0314 20.7402 
27403 322 4 2.11207 5.56229 19.2965 
27345 319 4 1.35207 5.45026 19.9378 
27404 322 4 1.35551 5.43853 19.9386 
27344 319 4 2.10873 5.58656 19.2983 
27346 319 4 1.27044 6.032 20.7472 
27050 303 4 0.810464 9.54382 18.6708 
27466 325 4 0.806731 9.5362 18.6591 
27049 303 4 0.856445 10.4878 18.248 
27465 325 4 0.855428 10.4801 18.2365 
27343 319 4 2.0271 6.1683 20.1077 
27400 322 4 2.03455 6.15516 20.0981 
27360 319 4 3.54042 6.4409 18.8286 
27409 322 4 3.54768 6.40268 18.8137 
27402 322 4 2.79112 6.27892 19.4559 
27349 319 4 2.78376 6.3046 19.4681 
27359 319 4 3.68027 7.15481 19.5653 
27408 322 4 3.69225 7.12556 19.5407 
27348 319 4 2.70212 6.88634 20.2775 
27401 322 4 2.7136 6.87179 20.2575 
27358 319 4 3.37715 7.60439 20.4473 
27407 322 4 3.39264 7.58842 20.417 
27467 325 4 0.893913 8.918 19.485 
27051 303 4 0.900162 8.92592 19.4966 
27052 303 4 1.1015 8.79963 20.5043 
27468 325 4 1.09361 8.79115 20.4929 
27041 303 4 1.17131 11.1328 19.2584 
27458 325 4 1.1704 11.1242 19.2474 
27039 303 4 1.31683 10.7607 20.1752 
27457 325 4 1.31384 10.7517 20.1643 
27459 325 4 1.06028 10.144 19.4117 
27042 303 4 1.06365 10.1522 19.423 
27043 303 4 1.20917 9.78015 20.3397 
27460 325 4 1.20372 9.77144 20.3286 
27406 322 4 1.95703 6.74803 20.8997 
27347 319 4 1.94547 6.75004 20.917 
27355 319 4 1.05912 6.68265 21.7806 
27416 322 4 1.07144 6.69684 21.7652 
27356 319 4 1.86383 7.33178 21.7263 
27417 322 4 1.87952 7.3409 21.7013 
27418 322 4 2.72914 7.66724 21.2078 
27357 319 4 2.71229 7.66916 21.2383 
27469 325 4 1.35232 9.18963 21.4128 
27053 303 4 1.36054 9.1988 21.4238 
27471 325 4 1.77225 11.0233 22.0921 
27054 303 4 1.60787 10.0165 22.0087 
27470 325 4 1.60072 10.0067 21.9981 
27055 303 4 1.77721 11.0335 22.1023 
27461 325 4 1.45728 10.3792 21.0812 
27462 325 4 1.56739 11.3595 20.9169 
27045 303 4 1.57001 11.3691 20.9274 
27044 303 4 1.46235 10.3886 21.0919 
27040 303 4 1.42449 11.7412 20.0106 
27463 325 4 1.42395 11.732 20 
27475 325 4 1.27535 12.3138 18.9158 
27047 303 4 1.27311 12.3225 18.9266 
27046 303 4 1.53215 12.7217 19.8461 
27474 325 4 1.53406 12.7123 19.8357 
27473 325 4 1.73376 12.5854 20.8436 
27057 303 4 1.73349 12.5954 20.8537 
27056 303 4 1.82319 11.9775 21.6796 
27472 325 4 1.82094 11.9672 21.6695 
27464 325 4 1.02696 11.4968 18.3305 
27048 303 4 1.02579 11.5049 18.3417 
27336 318 4 11.1743 9.98502 15.9823 
27327 318 4 10.1269 10.6476 15.9865 
27325 318 4 8.65674 11.284 16.6452 
27335 318 4 10.777 10.5752 15.2301 
27328 318 4 10.2967 10.1558 16.8405 
27324 318 4 9.47671 10.7199 16.7429 
27334 318 4 10.0314 11.2042 14.8833 
27326 318 4 9.30691 11.2116 15.8888 
27342 318 4 7.77914 11.4548 17.5035 
27338 318 4 10.6196 9.50072 17.8418 
27330 318 4 8.82654 10.7922 17.4993 
27341 318 4 8.17637 10.8646 18.2557 
27329 318 4 9.64651 10.2281 17.5969 
27340 318 4 8.92202 10.2356 18.6025 
27339 318 4 9.8163 9.73639 18.451 
27337 318 4 11.1166 9.59172 16.9382 
27333 318 4 9.13711 11.7034 15.0347 
27331 318 4 7.83677 11.8481 16.5475 
27332 318 4 8.33382 11.9391 15.6439 
27308 317 4 16.6414 21.5224 5.91816 
27316 317 4 15.8258 21.0945 5.52864 
27317 317 4 16.1423 21.7705 4.8112 
27315 317 4 15.9463 20.6479 6.45482 
27314 317 4 16.4717 20.5502 7.34158 
27318 317 4 16.8111 22.4947 4.49474 
27239 313 4 19.8873 5.96623 30.5848 
27125 307 4 20.6783 5.62601 30.0366 
27240 313 4 20.6854 5.60758 30.0314 
27126 307 4 19.8802 5.98512 30.5898 
27124 307 4 21.6962 5.58825 29.8516 
27241 313 4 21.7036 5.56809 29.848 
27130 307 4 21.3018 8.0623 32.97 
27247 313 4 21.3098 8.02927 32.9767 
27118 307 4 20.6896 6.4052 31.0003 
27127 307 4 19.5159 6.56935 31.363 
27117 307 4 21.5976 6.20676 30.6312 
27232 313 4 21.096 6.20313 30.7219 
27233 313 4 22.0878 6.3285 30.7481 
27238 313 4 19.5231 6.54794 31.3599 
27231 313 4 20.5149 6.67331 31.3861 
27119 307 4 20.591 7.02371 31.7799 
27237 313 4 19.6904 7.19682 32.1491 
27128 307 4 19.683 7.22215 32.149 
27115 307 4 21.499 6.82527 31.4108 
27229 313 4 21.5067 6.79868 31.4124 
27230 313 4 20.9255 7.26885 32.0766 
27235 313 4 21.9173 7.39422 32.1028 
27120 307 4 21.4004 7.44379 32.1904 
27236 313 4 20.3443 7.73903 32.7409 
27129 307 4 20.3366 7.7686 32.7372 
27446 324 4 21.881 13.17 5.86374 
27448 324 4 22.015 14.9897 5.04469 
27447 324 4 21.7716 14.1733 5.63301 
27255 314 4 19.3259 14.5062 7.19844 
27183 310 4 19.3332 14.4885 7.19477 
27266 314 4 20.2745 14.0956 7.14027 
27184 310 4 20.2828 14.0787 7.14811 
27265 314 4 21.1942 13.8984 7.57285 
27256 314 4 18.6025 15.0201 7.73179 
27175 310 4 19.7447 14.6868 8.08439 
27249 314 4 19.7462 14.699 8.08512 
27182 310 4 18.6041 15.0046 7.71818 
27172 310 4 20.1562 14.8851 8.97402 
27248 314 4 20.1666 14.8919 8.9718 
27174 310 4 19.2235 15.1869 8.77605 
27250 314 4 19.2324 15.1958 8.7846 
27264 314 4 21.8386 13.9674 8.38028 
27185 310 4 21.1985 13.8849 7.5907 
27254 314 4 20.6804 14.3951 8.27233 
27176 310 4 20.6773 14.385 8.28236 
27253 314 4 21.1007 14.588 9.159 
27177 310 4 21.0888 14.5833 9.17198 
27186 310 4 21.8349 13.9592 8.40395 
27263 314 4 22.0349 14.2841 9.3462 
27187 310 4 22.0214 14.2815 9.36994 
27257 314 4 18.2982 15.4997 8.5974 
27181 310 4 18.2909 15.4887 8.57809 
27262 314 4 21.7306 14.7637 10.2118 
27178 310 4 20.5677 15.0834 9.86364 
27188 310 4 21.7082 14.7656 10.2299 
27252 314 4 20.5869 15.0848 9.85848 
27258 314 4 18.4946 15.8164 9.56333 
27180 310 4 18.4775 15.811 9.54409 
27190 310 4 20.0295 15.6916 10.7999 
27260 314 4 20.0586 15.6882 10.8033 
27251 314 4 19.6527 15.3887 9.67128 
27173 310 4 19.635 15.3852 9.66567 
27179 310 4 19.1139 15.8853 10.3573 
27259 314 4 19.1389 15.8854 10.3708 
27261 314 4 21.0072 15.2776 10.7452 
27189 310 4 20.9792 15.2817 10.7533 
27309 317 4 17.1341 22.2225 5.40121 
27306 317 4 17.78 21.6781 7.21415 
27305 317 4 17.457 21.9503 6.30768 
27323 317 4 18.7718 22.1301 7.80416 
27307 317 4 16.9644 21.2502 6.82463 
27312 317 4 18.103 21.4059 8.12062 
27313 317 4 17.2611 20.8276 7.9513 
27310 317 4 17.9497 22.6504 5.79073 
27320 317 4 18.4424 23.3505 5.27378 
27319 317 4 17.653 23.073 4.66406 
27322 317 4 19.0883 22.8061 7.08672 
27311 317 4 18.2727 22.3782 6.6972 
27321 317 4 18.9677 23.2528 6.16053 
27033 302 4 21.4699 27.0858 27.0866 
27089 305 4 20.2067 23.675 25.8023 
27038 302 4 20.2072 23.6675 25.8018 
27034 302 4 20.8619 27.0397 26.2498 
27088 305 4 19.9355 24.5432 25.3078 
27037 302 4 19.9376 24.5374 25.3093 
27036 302 4 19.9772 25.5684 25.2237 
27087 305 4 19.973 25.5741 25.2202 
27026 302 4 20.5147 24.8381 26.0686 
27080 305 4 20.5115 24.8468 26.0669 
27079 305 4 20.6983 25.8209 26.1944 
27025 302 4 20.7037 25.8116 26.1979 
27085 305 4 20.8539 27.0495 26.2439 
27086 305 4 20.3092 26.4915 25.5628 
27035 302 4 20.3156 26.4843 25.568 
27024 302 4 21.2809 26.1123 26.9572 
27027 302 4 20.7139 23.1919 26.5692 
27090 305 4 20.7138 23.202 26.5711 
27028 302 4 21.3219 23.238 27.406 
27091 305 4 21.3211 23.2511 27.4081 
27021 302 4 20.9029 24.1654 26.6986 
27081 305 4 20.9006 24.1761 26.6985 
27020 302 4 21.0919 25.1388 26.8279 
27077 305 4 21.0875 25.1503 26.826 
27022 302 4 21.4801 24.4661 27.4578 
27082 305 4 21.4766 24.4797 27.4576 
27083 305 4 21.6634 25.4538 27.5851 
27023 302 4 21.6691 25.4396 27.5872 
27084 305 4 21.4611 27.0985 27.0809 
27078 305 4 21.2743 26.1244 26.9535 
27029 302 4 21.8682 23.7934 28.0878 
27092 305 4 21.8657 23.8091 28.0892 
27032 302 4 21.9766 26.6102 27.854 
27095 305 4 21.9683 26.6256 27.8497 
27093 305 4 22.2019 24.7264 28.4318 
27094 305 4 22.2394 25.7573 28.3442 
27030 302 4 22.2066 24.7093 28.4321 
27031 302 4 22.2462 25.7403 28.3465 
27295 316 4 25.6736 6.09544 11.2887 
27293 316 4 23.7459 5.57871 11.158 
27294 316 4 24.773 5.58486 11.2881 
27304 316 4 22.8676 6.07864 10.9332 
27436 323 4 23.2945 5.7579 12.9807 
27378 320 4 23.3161 5.71965 12.954 
27437 323 4 24.1724 5.26661 13.2251 
27377 320 4 24.2059 5.24703 13.1924 
27426 323 4 25.1946 5.28505 13.3886 
27376 320 4 25.228 5.28775 13.3522 
27427 323 4 26.0871 5.80828 13.4271 
27375 320 4 26.1085 5.83092 13.3906 
27123 307 4 22.6614 5.88194 30.0844 
27242 313 4 22.669 5.85833 30.0838 
27166 309 4 26.7851 11.4808 1.33969 
27170 309 4 24.2724 9.22594 2.1161 
27393 321 4 24.2516 9.2115 2.09923 
27159 309 4 25.136 9.67394 2.3477 
27167 309 4 25.9095 11.1737 0.880486 
27392 321 4 24.4431 9.85918 1.31454 
27169 309 4 24.4588 9.87187 1.32875 
27384 321 4 25.2104 9.98142 1.94415 
27158 309 4 25.5287 10.3534 1.72789 
27383 321 4 25.9379 10.6318 1.72549 
27390 321 4 25.8981 11.16 0.877224 
27391 321 4 25.0458 10.5724 0.867252 
27168 309 4 25.058 10.5848 0.876482 
27157 309 4 26.3923 10.8014 1.9595 
27382 321 4 26.7052 10.7541 2.3551 
27165 309 4 27.4502 11.4238 2.13104 
27388 321 4 27.4327 11.4044 2.13644 
27385 321 4 25.2502 9.45327 2.79241 
27171 309 4 24.5488 8.82009 3.02757 
27394 321 4 24.5227 8.80288 3.01107 
27160 309 4 25.2139 8.76308 3.81892 
27395 321 4 25.1836 8.74279 3.80573 
27154 309 4 25.6067 9.44251 3.19911 
27386 321 4 26.0175 9.57551 3.42202 
27396 321 4 26.0573 9.04735 4.27028 
27161 309 4 26.0895 9.07017 4.27812 
27162 309 4 26.941 9.65908 4.28212 
27397 321 4 26.9096 9.63495 4.28026 
27381 321 4 25.9777 10.1037 2.57375 
27153 309 4 25.9995 10.1219 2.5793 
27155 309 4 26.4703 9.89051 3.43071 
27163 309 4 27.5403 10.372 3.82986 
27398 321 4 27.5123 10.3481 3.83297 
27156 309 4 26.8631 10.5699 2.81091 
27387 321 4 26.745 10.2259 3.20336 
27389 321 4 26.7718 11.4645 1.34178 
27302 316 4 22.3958 7.96118 10.4497 
27287 316 4 24.0235 6.52306 10.9813 
27292 316 4 23.3373 7.20904 10.7393 
27286 316 4 24.3012 7.46741 10.8046 
27288 316 4 24.9874 6.78142 11.0467 
27289 316 4 25.265 7.72577 10.87 
27296 316 4 26.2066 6.97364 11.1596 
27291 316 4 23.6149 8.15339 10.5626 
27301 316 4 22.9287 8.83937 10.3206 
27300 316 4 23.8293 9.34995 10.3212 
27299 316 4 24.8564 9.3561 10.4513 
27290 316 4 24.5788 8.41175 10.628 
27298 316 4 25.7347 8.85618 10.6761 
27297 316 4 26.2289 7.98413 10.9354 
27303 316 4 22.3734 6.95068 10.6739 
27368 320 4 23.7484 6.87094 12.8001 
27424 323 4 23.7608 7.40539 12.7186 
27363 320 4 23.9953 7.82887 12.6535 
27380 320 4 22.7879 7.59478 12.5011 
27434 323 4 22.8107 7.64181 12.5147 
27425 323 4 24.0027 6.46343 12.9516 
27435 323 4 22.7961 6.62729 12.7206 
27379 320 4 22.7971 6.57899 12.701 
27419 323 4 24.7108 7.16896 12.9226 
27362 320 4 24.6997 7.16288 12.8992 
27421 323 4 25.6608 6.93253 13.1266 
27365 320 4 25.6511 7.45483 12.9984 
27422 323 4 25.4189 7.87449 12.8936 
27366 320 4 25.4041 6.4969 13.1449 
27367 320 4 24.4528 6.20495 13.0458 
27420 323 4 24.9527 6.227 13.1556 
27428 323 4 26.6109 6.6961 13.3305 
27374 320 4 26.6116 6.73098 13.2974 
27429 323 4 26.6255 7.71063 13.1246 
27373 320 4 26.6024 7.74677 13.0975 
27433 323 4 23.3345 8.52964 12.4181 
27369 320 4 23.2909 8.49485 12.4078 
27432 323 4 24.227 9.05287 12.4566 
27370 320 4 24.1715 9.03802 12.4463 
27423 323 4 24.4689 8.11091 12.6896 
27364 320 4 24.9467 8.12081 12.7527 
27371 320 4 25.1936 9.07874 12.6061 
27431 323 4 25.2492 9.07131 12.62 
27430 323 4 26.1271 8.58001 12.8645 
27372 320 4 26.0834 8.60611 12.8445 
27234 313 4 22.4985 6.92405 31.4386 
27116 307 4 22.407 6.62684 31.0417 
27121 307 4 22.3084 7.24535 31.8213 
27243 313 4 23.323 6.40053 30.6756 
27122 307 4 23.315 6.4284 30.6726 
27133 307 4 23.4821 7.0812 31.4586 
27244 313 4 23.4903 7.04942 31.4648 
27132 307 4 23.1178 7.66543 32.2318 
27245 313 4 23.1261 7.63112 32.2399 
27131 307 4 22.3197 8.02453 32.7851 
27246 313 4 22.3279 7.98977 32.7933 
27456 324 4 22.954 11.656 5.11752 
27443 324 4 23.7461 13.1269 3.6312 
27454 324 4 24.1609 11.9617 3.55225 
27453 324 4 24.4043 12.7781 2.96392 
27442 324 4 23.475 14.0893 3.61017 
27451 324 4 23.8621 14.7029 2.92187 
27452 324 4 24.2949 13.7815 2.73319 
27450 324 4 23.2219 15.2955 3.47941 
27455 324 4 23.6301 11.551 4.34052 
27444 324 4 23.359 12.5133 4.31949 
27439 324 4 22.7008 12.8621 4.98676 
27438 324 4 23.0879 13.4757 4.29847 