475
Atoms. Timestep: 0
H 21.880500 5.970780 11.806600
H 21.877000 5.984530 11.793600
H 20.145700 5.433340 31.209600
H 20.167700 5.392660 31.214300
H 22.112900 5.520950 30.859200
H 21.127800 5.264230 30.848800
H 21.101500 5.301020 30.834400
H 22.136600 5.495320 30.877700
H 19.513600 5.846190 31.876400
H 19.501600 5.882430 31.884400
H 20.738600 5.999310 31.767600
H 21.723100 6.050640 31.599300
H 21.205200 5.958310 31.580900
H 19.695300 7.187920 0.985570
H 19.709000 7.197010 1.014510
H 20.482500 7.716600 1.401170
H 20.504900 7.710250 1.432730
H 21.491300 7.947690 1.430060
H 21.516300 7.930180 1.457550
H 21.339000 10.198200 9.690610
H 21.879800 7.611500 9.821240
H 20.650200 7.457250 9.806630
H 21.393600 6.738220 9.853470
H 20.366500 8.451620 9.755070
H 20.618600 9.454880 9.712600
H 21.366300 8.468210 9.772040
H 21.852500 9.341490 9.739800
H 21.124200 6.674150 11.735700
H 21.123100 6.690320 11.720800
H 21.970600 7.206050 11.761400
H 21.821900 7.713820 11.711400
H 20.821400 7.662570 11.678600
H 20.823800 7.679540 11.659300
H 21.766800 9.443110 11.629200
H 21.935200 8.204550 11.718900
H 21.053400 8.671170 11.650600
H 21.059400 8.687130 11.625800
H 21.757900 9.429720 11.659200
H 19.340700 6.503300 32.657500
H 19.341700 6.527990 32.677900
H 20.325100 6.554630 32.489200
H 20.405200 6.249020 32.105900
H 21.412600 7.272890 33.073900
H 22.108900 6.324900 31.802400
H 20.508900 6.906310 32.852400
H 21.880500 7.212610 32.874100
H 21.308900 6.615600 32.327400
H 21.309600 6.605960 32.320900
H 22.212600 6.982190 32.548900
H 20.896000 7.161280 33.042500
H 19.245500 15.272200 6.013850
H 19.249200 15.259700 5.999180
H 20.241100 15.020400 6.144890
H 20.245100 15.008600 6.129430
H 21.086700 14.961600 6.730600
H 21.082400 14.973600 6.746410
H 17.831500 16.068100 7.155500
H 17.828300 16.084300 7.168190
H 18.362300 15.661600 6.388410
H 18.365700 15.647500 6.374750
H 18.750300 15.919100 7.521220
H 18.746800 15.935000 7.534470
H 19.455400 15.528900 6.957300
H 19.459100 15.514900 6.943050
H 19.669100 15.770000 7.886930
H 19.665300 15.785700 7.900760
H 20.373900 15.379600 7.323590
H 20.377900 15.365800 7.308760
H 21.548400 15.131200 7.641610
H 21.544100 15.144400 7.657240
H 17.786500 16.427000 8.144270
H 17.789700 16.408900 8.132240
H 18.248200 16.597800 9.055100
H 18.251400 16.578500 9.043250
H 19.093000 16.531400 9.644420
H 18.956700 16.191700 8.477930
H 18.960200 16.174200 8.465090
H 19.089500 16.551000 9.656620
H 19.879000 16.025200 8.830800
H 19.875200 16.042400 8.844210
H 20.583800 15.636400 8.267040
H 20.587800 15.621000 8.252640
H 21.506600 15.471900 8.618350
H 21.502300 15.487000 8.633320
H 20.968300 15.909700 9.413100
H 20.972400 15.892500 9.399100
H 20.089000 16.280400 9.774670
H 20.085100 16.299200 9.787660
H 22.883600 5.751290 11.858400
H 22.887900 5.740920 11.872200
H 23.873200 6.053100 11.897800
H 23.876300 6.046150 11.915100
H 22.908800 6.034190 31.277400
H 22.923800 6.024000 31.293300
H 22.451400 7.819270 1.064500
H 22.472100 7.797870 1.082300
H 24.496300 9.189910 2.310200
H 24.497600 9.190930 2.344700
H 24.651600 9.663210 1.402590
H 24.640500 9.645190 1.425400
H 25.386200 9.644300 2.415320
H 25.239800 10.253600 0.788316
H 25.459500 9.881630 1.949960
H 25.748000 10.159200 1.638100
H 25.221200 10.220700 0.790261
H 26.185500 10.451400 1.564660
H 26.636500 10.612600 1.708710
H 26.993400 10.669800 2.112030
H 26.998300 11.127400 0.931490
H 27.011000 11.163700 0.975454
H 26.274700 10.097700 2.485930
H 26.267500 10.100000 2.497340
H 25.541500 9.530260 2.882650
H 24.815600 8.960470 3.267960
H 24.830900 8.979630 3.301850
H 25.523900 9.036390 4.019220
H 25.551100 9.067920 4.040380
H 25.912900 9.582800 3.263150
H 27.163300 10.551000 2.556550
H 27.328200 9.974660 4.181600
H 27.075400 10.318500 3.044710
H 26.349500 9.748680 3.430020
H 26.801500 10.036200 3.333770
H 27.295100 9.946530 4.206360
H 26.431500 9.397310 4.362700
H 26.465200 9.432120 4.362390
H 22.334500 10.482400 9.694980
H 22.879600 7.628090 9.838200
H 23.393100 6.771390 9.887400
H 22.397600 6.487170 9.883030
H 24.113500 7.514710 9.865410
H 23.365800 8.501380 9.805970
H 24.081900 9.512330 9.771380
H 22.852300 9.358080 9.756770
H 22.366100 8.484790 9.789000
H 24.365600 8.517960 9.822940
H 23.338500 10.231400 9.724540
H 22.852500 6.739430 11.829700
H 23.346600 6.900610 11.830600
H 22.817100 7.737940 11.787200
H 23.699000 7.271320 11.855500
H 22.820000 7.748110 11.763500
H 23.818100 7.782390 11.815600
H 22.348500 6.866320 11.778600
H 24.580800 6.804700 11.923700
H 24.580600 6.809090 11.901100
H 24.812800 7.813300 11.895700
H 24.816200 7.816680 11.867600
H 23.291500 8.629900 11.748400
H 23.663600 8.269830 11.812900
H 22.781700 8.736440 11.744700
H 23.763000 9.511680 11.733400
H 23.753600 9.505090 11.767800
H 22.293400 8.595610 11.696300
H 24.516900 8.805900 11.806200
H 24.510000 8.801720 11.838700
H 22.746300 9.734950 11.702100
H 22.756400 9.744920 11.668600
H 23.278400 6.708620 31.984200
H 23.276100 6.703220 31.977000
H 23.116300 7.348770 32.770500
H 23.105500 7.365730 32.765400
H 22.294000 6.657290 32.152600
H 26.084300 10.763200 32.972400
H 26.103400 10.802800 32.994900
H 24.821600 13.843500 2.297410
H 24.416500 14.790300 2.403750
H 23.873400 12.755700 4.005640
H 24.906900 12.863300 2.619840
H 24.118600 11.792200 4.113680
H 24.649600 12.112500 3.284640
H 24.267500 13.291300 3.258710
H 23.628200 13.719200 3.897590
H 23.383000 14.682600 3.789550
H 24.022300 14.254700 3.150670
H 23.137800 15.646100 3.681500
H 23.800200 15.450100 2.910360
H 23.456200 11.988200 4.884830
H 22.839800 12.648100 5.391440
H 23.234000 13.183600 4.644520
H 22.434700 13.594900 5.497780
H 22.988800 14.147100 4.536470
H 22.349400 14.575000 5.175350
H 22.606800 15.325800 4.510540
H 30.886600 3.905170 0.740430
H 30.299700 3.150190 0.994284
H 30.302300 3.137180 1.002660
H 30.798300 3.405140 1.871000
H 30.797000 3.418940 1.861690
H 30.886600 3.915460 0.729680
H 31.475500 4.025780 2.354880
H 31.474600 4.012870 2.366140
H 31.474500 4.353250 1.409980
H 31.472800 4.343020 1.422170
H 32.643400 5.548860 1.841670
H 32.057200 5.111010 1.159930
H 32.061400 5.118520 1.145370
H 32.649300 5.556310 1.825670
H 32.153500 4.808110 2.341700
H 32.150000 4.797520 2.355400
H 32.822700 6.065550 0.962599
H 32.830000 6.069890 0.945078
H 30.792100 4.548810 30.963900
H 30.793500 4.553340 30.951400
H 31.467400 5.333460 30.953200
H 31.471500 5.335670 30.938200
H 30.884800 4.235320 32.159400
H 30.117000 3.291550 32.348000
H 30.298700 3.797470 31.477600
H 30.119400 3.280780 32.356700
H 30.297700 3.805140 31.467400
H 30.885600 4.242930 32.147700
H 32.143700 5.941190 31.448300
H 32.150000 5.942510 31.431400
H 31.469200 5.003310 31.897100
H 31.473500 4.680720 32.828000
H 32.060400 5.445990 32.563400
H 31.471000 4.673160 32.841100
H 32.055400 5.441160 32.578900
H 31.472500 5.008200 31.883100
H 27.718500 11.215700 1.670010
H 27.719300 11.239600 1.726720
H 28.038600 11.010200 2.684480
H 28.051900 11.004400 2.627160
H 27.883300 10.536900 3.592090
H 27.909000 10.550200 3.546470
H 32.639800 6.209150 32.316600
H 32.647300 6.211250 32.298800
H 1.439430 7.841880 18.005600
H 1.448440 7.834660 18.008300
H 2.258640 8.479130 18.019100
H 2.246540 8.490240 18.014900
H 1.170870 8.580660 18.623800
H 1.180500 8.577010 18.622500
H 2.708160 9.348750 18.356100
H 2.693470 9.360780 18.353000
H 1.810360 9.334060 18.796400
H 1.797890 9.340110 18.797500
H 0.912566 9.319370 19.236600
H 0.902306 9.319440 19.242000
H 1.529330 10.078900 19.415700
H 1.542420 10.076400 19.410500
H 2.172280 10.833500 19.584500
H 2.156340 10.838300 19.589400
H 1.316220 11.049400 20.156400
H 1.330480 11.050700 20.146600
H 2.676550 10.210500 18.929100
H 2.660450 10.220200 18.929300
H 32.851300 7.589430 18.327700
H 32.857600 7.588010 18.326700
H 32.015800 7.805280 18.888800
H 32.011200 7.800540 18.894700
H 31.507100 8.418640 19.554800
H 31.511500 8.428250 19.544200
H 31.474100 9.278100 20.131000
H 31.479900 9.290000 20.117200
H 32.638200 8.559990 19.068300
H 32.645600 8.562330 19.062700
H 32.377700 9.304680 19.676900
H 32.369600 9.298770 19.686500
H 32.996700 10.058200 19.860200
H 33.007500 10.061700 19.850800
H 32.739600 10.804100 20.465000
H 31.921000 10.148600 20.469100
H 32.728100 10.797000 20.478400
H 31.929400 10.159600 20.454200
H 32.431300 12.069500 16.746000
H 32.423100 12.100300 16.764700
H 32.586200 12.901600 16.129800
H 32.583400 12.873200 16.111200
H 32.897600 14.832600 16.360500
H 32.919700 14.857900 16.378500
H 32.768000 13.911000 15.988400
H 32.754000 13.884500 15.970100
H 32.542100 12.859000 17.349800
H 32.539400 12.889100 17.368200
H 32.483300 12.772600 18.359800
H 32.491600 12.740900 18.341600
H 32.322200 11.721700 17.723000
H 32.338700 11.688900 17.704300
H 32.655800 13.678000 17.971700
H 32.652900 13.648400 17.953600
H 32.711900 13.794500 16.980100
H 32.703500 13.766500 16.961900
H 32.814300 14.555900 17.565700
H 32.828200 14.583400 17.583600
H 32.772100 14.466900 18.575200
H 32.763700 14.437800 18.557400
H 32.975600 15.463400 17.177700
H 33.000700 15.488700 17.195500
H 32.967200 15.607800 18.202900
H 32.989300 15.634300 18.220400
H 32.310800 11.867300 18.748000
H 32.391800 12.498000 19.564900
H 32.408200 12.464200 19.546800
H 32.330200 11.833400 18.729500
H 32.543500 13.445000 19.955000
H 32.551800 13.412300 19.937100
H 32.599600 13.561500 18.963400
H 32.602400 13.530300 18.945400
H 32.725300 14.454400 19.813600
H 32.722500 14.423600 19.796000
H 32.888500 15.255700 19.178700
H 32.874500 15.227300 19.161300
H 10.566900 10.889300 17.789200
H 10.111400 11.179900 16.906100
H 10.786000 11.066100 18.785500
H 9.541540 11.860200 16.372800
H 9.010050 12.747700 16.332200
H 8.659340 13.604800 16.795100
H 9.172020 13.119300 17.503300
H 9.684690 12.633900 18.211600
H 9.613120 12.247000 17.292200
H 10.125800 11.761600 18.000400
H 9.243590 13.506200 18.422700
H 8.802490 14.378500 18.633900
H 8.583360 14.201700 17.637600
H 9.756270 13.020800 19.131000
H 10.197400 12.148500 18.919800
H 10.359300 12.520100 20.091000
H 10.710100 11.663000 19.628000
H 9.258010 14.087900 19.517000
H 9.827850 13.407600 20.050400
H 27.452200 17.304700 3.798070
H 27.676100 17.803200 4.677430
H 28.526400 16.515000 2.307190
H 29.536700 16.435300 2.095150
H 30.523500 16.615600 2.351200
H 27.763500 16.833200 2.930500
H 28.606400 17.119300 3.386290
H 28.562700 17.604300 4.259750
H 29.449300 17.405400 3.842070
H 29.493000 16.920400 2.968610
H 30.335900 17.206500 3.424400
H 31.222500 17.007500 3.006720
H 30.292200 17.691500 4.297860
H 31.446300 17.506000 3.886080
H 29.405600 17.890400 4.715540
H 28.375100 18.195100 5.332950
H 29.361900 18.375400 5.589000
H 31.135100 17.977600 4.753650
H 30.372100 18.295800 5.376960
H 0.882872 22.131800 12.786900
H 1.123810 22.218500 11.783800
H 0.829234 22.289100 10.793800
H 29.730500 22.184600 10.878700
H 30.965300 22.211200 10.982000
H 30.442400 22.264300 10.131200
H 31.964600 22.241400 10.957500
H 31.011700 22.075000 12.708100
H 29.784200 22.027300 12.871800
H 30.488900 22.128000 11.857300
H 29.489600 22.097800 11.881800
H 31.488200 22.158200 11.832800
H 32.011000 22.105100 12.683600
H 32.487400 22.188300 11.808300
H 30.535300 21.991800 13.583400
H 32.533900 22.052100 13.534400
H 31.541800 22.000800 13.826000
H 32.441000 22.324600 10.082200
H 31.434500 22.315500 9.839630
H 1.154260 30.924300 23.322900
H 1.144740 29.900300 23.475200
H 30.434300 28.844000 22.275400
H 31.101500 30.978000 22.244700
H 30.855600 30.009500 22.283800
H 29.968400 29.704600 21.937500
H 29.977900 30.728600 21.785200
H 30.460300 31.641600 21.859300
H 31.286400 32.199000 22.140000
H 31.250800 28.377400 22.708300
H 31.496800 29.345900 22.669200
H 32.199200 28.429800 23.120300
H 33.025200 28.987300 23.401000
H 31.742800 30.314400 22.630200
H 32.384000 29.650800 23.015600
H 32.630000 30.619400 22.976500
H 31.988700 31.283000 22.591100
H 32.234700 32.251500 22.552000
H 33.051300 31.784900 22.985000
H 16.132800 21.527000 7.077270
H 15.642300 22.006500 6.301790
H 16.799100 22.177400 6.712520
H 15.640400 22.706100 5.538640
H 16.552900 22.767000 5.943210
H 16.127400 23.438400 4.992300
H 17.711600 22.238200 7.117090
H 17.957800 21.648600 7.886410
H 16.980300 21.396000 7.657280
H 18.803400 22.217300 7.703260
H 16.973000 24.007000 4.809150
H 18.131700 23.478200 5.983030
H 17.219200 23.417400 5.578470
H 17.950500 24.259700 5.038280
H 18.798100 24.128700 5.618290
H 18.377900 22.888700 6.752350
H 17.465400 22.827800 6.347780
H 19.290500 22.949500 7.156920
H 19.288500 23.649100 6.393770
H 20.081800 25.312300 23.044700
H 20.101700 25.316200 23.067600
H 20.419700 24.656700 23.771300
H 20.442500 24.662600 23.794500
H 20.819400 25.553100 24.049800
H 20.797600 25.546000 24.029100
H 20.036900 26.268700 22.651000
H 20.054100 26.271900 22.672200
H 20.312600 27.273500 22.714300
H 20.297000 27.269900 22.695600
H 20.625200 26.357700 23.488600
H 20.606200 26.352000 23.469000
H 21.002000 27.248100 23.743900
H 20.984000 27.241300 23.726800
H 22.053900 25.600800 25.878200
H 20.960200 24.477700 24.636000
H 20.985300 24.486200 24.658300
H 21.558300 24.823300 25.407200
H 21.584600 24.834200 25.427500
H 21.390400 25.638900 24.866300
H 21.366900 25.629300 24.847100
H 21.196200 26.443500 24.305100
H 21.175400 26.435300 24.286900
H 21.553300 27.324600 24.544700
H 21.573000 27.334000 24.560400
H 21.767200 26.529300 25.121600
H 21.744700 26.518600 25.104900
H 22.269100 27.558400 25.529100
H 22.079800 25.613500 25.895900
H 21.390700 28.392900 23.937800
H 21.407100 28.400800 23.951900
H 20.792600 28.047300 23.166600
H 20.807800 28.052800 23.182800
H 21.931100 28.213900 24.802500
H 21.949900 28.224400 24.815700
H 23.095100 22.201000 22.180400
H 23.124100 22.227200 22.155500
H 22.718600 21.755300 23.035700
H 22.741600 21.774400 23.004300
H 22.636500 21.743000 24.033800
H 22.622400 21.731300 24.066200
H 22.837000 22.141400 24.968100
H 22.832400 22.135500 24.996000
H 23.681700 22.980000 21.714800
H 23.651000 22.949000 21.729600
H 24.264900 23.831200 21.800200
H 24.237500 23.798900 21.804100
H 23.764900 23.329300 23.689900
H 23.777200 23.347000 23.678600
H 23.241700 22.542300 23.362800
H 23.206800 22.545000 23.856200
H 23.450700 22.787100 22.917000
H 23.708000 23.139100 22.709800
H 24.021000 23.589100 22.739400
H 24.231100 23.926100 23.036900
H 24.288100 24.116300 24.017000
H 24.347500 24.149100 23.500900
H 24.917900 24.951100 23.323300
H 24.907400 24.927200 23.313600
H 24.697400 24.523000 22.383800
H 24.717300 24.552700 22.389000
H 23.298700 22.732400 24.342900
H 23.533300 23.105000 24.617700
H 23.821800 23.519400 24.670000
H 23.292300 22.859600 25.575700
H 23.878700 23.709500 25.650200
H 23.872700 23.714000 25.642400
H 23.289500 22.862900 25.556900
H 24.103700 23.907000 24.440100
H 24.812800 24.919700 24.352800
H 24.811200 24.903300 24.344100
H 24.430200 24.466900 25.201600
H 24.434700 24.457600 25.199400
H 22.290700 27.570800 25.542700
H 22.338300 26.615100 25.938100
H 22.314000 26.601900 25.922800
475
Atoms. Timestep: 50000
H 19.887300 5.966230 30.584800
H 20.678300 5.626010 30.036600
H 20.685400 5.607580 30.031400
H 19.880200 5.985120 30.589800
H 21.696200 5.588250 29.851600
H 21.703600 5.568090 29.848000
H 21.301800 8.062300 32.970000
H 21.309800 8.029270 32.976700
H 20.689600 6.405200 31.000300
H 19.515900 6.569350 31.363000
H 21.597600 6.206760 30.631200
H 21.096000 6.203130 30.721900
H 22.087800 6.328500 30.748100
H 19.523100 6.547940 31.359900
H 20.514900 6.673310 31.386100
H 20.591000 7.023710 31.779900
H 19.690400 7.196820 32.149100
H 19.683000 7.222150 32.149000
H 21.499000 6.825270 31.410800
H 21.506700 6.798680 31.412400
H 20.925500 7.268850 32.076600
H 21.917300 7.394220 32.102800
H 21.400400 7.443790 32.190400
H 20.344300 7.739030 32.740900
H 20.336600 7.768600 32.737200
H 21.881000 13.170000 5.863740
H 22.015000 14.989700 5.044690
H 21.771600 14.173300 5.633010
H 19.325900 14.506200 7.198440
H 19.333200 14.488500 7.194770
H 20.274500 14.095600 7.140270
H 20.282800 14.078700 7.148110
H 21.194200 13.898400 7.572850
H 18.602500 15.020100 7.731790
H 19.744700 14.686800 8.084390
H 19.746200 14.699000 8.085120
H 18.604100 15.004600 7.718180
H 20.156200 14.885100 8.974020
H 20.166600 14.891900 8.971800
H 19.223500 15.186900 8.776050
H 19.232400 15.195800 8.784600
H 21.838600 13.967400 8.380280
H 21.198500 13.884900 7.590700
H 20.680400 14.395100 8.272330
H 20.677300 14.385000 8.282360
H 21.100700 14.588000 9.159000
H 21.088800 14.583300 9.171980
H 21.834900 13.959200 8.403950
H 22.034900 14.284100 9.346200
H 22.021400 14.281500 9.369940
H 18.298200 15.499700 8.597400
H 18.290900 15.488700 8.578090
H 21.730600 14.763700 10.211800
H 20.567700 15.083400 9.863640
H 21.708200 14.765600 10.229900
H 20.586900 15.084800 9.858480
H 18.494600 15.816400 9.563330
H 18.477500 15.811000 9.544090
H 20.029500 15.691600 10.799900
H 20.058600 15.688200 10.803300
H 19.652700 15.388700 9.671280
H 19.635000 15.385200 9.665670
H 19.113900 15.885300 10.357300
H 19.138900 15.885400 10.370800
H 21.007200 15.277600 10.745200
H 20.979200 15.281700 10.753300
H 25.673600 6.095440 11.288700
H 23.745900 5.578710 11.158000
H 24.773000 5.584860 11.288100
H 22.867600 6.078640 10.933200
H 23.294500 5.757900 12.980700
H 23.316100 5.719650 12.954000
H 24.172400 5.266610 13.225100
H 24.205900 5.247030 13.192400
H 25.194600 5.285050 13.388600
H 25.228000 5.287750 13.352200
H 26.087100 5.808280 13.427100
H 26.108500 5.830920 13.390600
H 22.661400 5.881940 30.084400
H 22.669000 5.858330 30.083800
H 26.785100 11.480800 1.339690
H 24.272400 9.225940 2.116100
H 24.251600 9.211500 2.099230
H 25.136000 9.673940 2.347700
H 25.909500 11.173700 0.880486
H 24.443100 9.859180 1.314540
H 24.458800 9.871870 1.328750
H 25.210400 9.981420 1.944150
H 25.528700 10.353400 1.727890
H 25.937900 10.631800 1.725490
H 25.898100 11.160000 0.877224
H 25.045800 10.572400 0.867252
H 25.058000 10.584800 0.876482
H 26.392300 10.801400 1.959500
H 26.705200 10.754100 2.355100
H 27.450200 11.423800 2.131040
H 27.432700 11.404400 2.136440
H 25.250200 9.453270 2.792410
H 24.548800 8.820090 3.027570
H 24.522700 8.802880 3.011070
H 25.213900 8.763080 3.818920
H 25.183600 8.742790 3.805730
H 25.606700 9.442510 3.199110
H 26.017500 9.575510 3.422020
H 26.057300 9.047350 4.270280
H 26.089500 9.070170 4.278120
H 26.941000 9.659080 4.282120
H 26.909600 9.634950 4.280260
H 25.977700 10.103700 2.573750
H 25.999500 10.121900 2.579300
H 26.470300 9.890510 3.430710
H 27.540300 10.372000 3.829860
H 27.512300 10.348100 3.832970
H 26.863100 10.569900 2.810910
H 26.745000 10.225900 3.203360
H 26.771800 11.464500 1.341780
H 22.395800 7.961180 10.449700
H 24.023500 6.523060 10.981300
H 23.337300 7.209040 10.739300
H 24.301200 7.467410 10.804600
H 24.987400 6.781420 11.046700
H 25.265000 7.725770 10.870000
H 26.206600 6.973640 11.159600
H 23.614900 8.153390 10.562600
H 22.928700 8.839370 10.320600
H 23.829300 9.349950 10.321200
H 24.856400 9.356100 10.451300
H 24.578800 8.411750 10.628000
H 25.734700 8.856180 10.676100
H 26.228900 7.984130 10.935400
H 22.373400 6.950680 10.673900
H 23.748400 6.870940 12.800100
H 23.760800 7.405390 12.718600
H 23.995300 7.828870 12.653500
H 22.787900 7.594780 12.501100
H 22.810700 7.641810 12.514700
H 24.002700 6.463430 12.951600
H 22.796100 6.627290 12.720600
H 22.797100 6.578990 12.701000
H 24.710800 7.168960 12.922600
H 24.699700 7.162880 12.899200
H 25.660800 6.932530 13.126600
H 25.651100 7.454830 12.998400
H 25.418900 7.874490 12.893600
H 25.404100 6.496900 13.144900
H 24.452800 6.204950 13.045800
H 24.952700 6.227000 13.155600
H 26.610900 6.696100 13.330500
H 26.611600 6.730980 13.297400
H 26.625500 7.710630 13.124600
H 26.602400 7.746770 13.097500
H 23.334500 8.529640 12.418100
H 23.290900 8.494850 12.407800
H 24.227000 9.052870 12.456600
H 24.171500 9.038020 12.446300
H 24.468900 8.110910 12.689600
H 24.946700 8.120810 12.752700
H 25.193600 9.078740 12.606100
H 25.249200 9.071310 12.620000
H 26.127100 8.580010 12.864500
H 26.083400 8.606110 12.844500
H 22.498500 6.924050 31.438600
H 22.407000 6.626840 31.041700
H 22.308400 7.245350 31.821300
H 23.323000 6.400530 30.675600
H 23.315000 6.428400 30.672600
H 23.482100 7.081200 31.458600
H 23.490300 7.049420 31.464800
H 23.117800 7.665430 32.231800
H 23.126100 7.631120 32.239900
H 22.319700 8.024530 32.785100
H 22.327900 7.989770 32.793300
H 22.954000 11.656000 5.117520
H 23.746100 13.126900 3.631200
H 24.160900 11.961700 3.552250
H 24.404300 12.778100 2.963920
H 23.475000 14.089300 3.610170
H 23.862100 14.702900 2.921870
H 24.294900 13.781500 2.733190
H 23.221900 15.295500 3.479410
H 23.630100 11.551000 4.340520
H 23.359000 12.513300 4.319490
H 22.700800 12.862100 4.986760
H 23.087900 13.475700 4.298470
H 22.816900 14.438100 4.277440
H 22.429800 13.824500 4.965740
H 22.545800 15.400500 4.256410
H 22.313700 12.248600 5.675060
H 30.170100 2.433750 2.474270
H 30.168200 2.443730 2.456120
H 29.846300 2.244890 1.509200
H 29.838400 2.260540 1.491970
H 30.778700 3.502340 2.249620
H 30.777300 3.493970 2.266320
H 30.872500 3.957150 1.385130
H 30.871100 3.969050 1.370000
H 30.354700 3.114790 1.430990
H 30.359400 3.101020 1.447170
H 31.290400 4.350100 2.204280
H 31.295000 4.356590 2.188630
H 31.385600 4.813280 1.323100
H 31.903800 5.677550 1.248030
H 31.947500 5.399460 2.259370
H 31.956800 5.402950 2.244850
H 31.387400 4.823300 1.309010
H 31.898700 5.669410 1.261060
H 30.682100 3.030800 3.147500
H 30.686300 3.035640 3.129240
H 31.253900 3.877640 3.330970
H 31.245200 3.876060 3.348510
H 31.719000 4.744140 3.007260
H 31.708300 4.743050 3.023430
H 31.574000 5.494360 32.646800
H 31.055900 4.902460 31.973700
H 29.785300 2.535140 32.858100
H 29.797400 2.514840 32.873800
H 30.488200 4.060450 31.771900
H 30.499800 4.038240 31.784700
H 30.036600 3.171250 32.109700
H 30.023200 3.193950 32.095700
H 30.447100 3.581500 32.914300
H 30.454600 3.564200 32.928900
H 30.967700 4.420330 32.866900
H 30.963500 4.435750 32.853300
H 31.574900 5.480550 32.658900
H 31.062800 4.883510 31.985700
H 27.726600 11.017900 3.042510
H 27.703700 10.995800 3.048280
H 1.339970 4.643080 18.988300
H 1.341910 4.667440 18.977100
H 2.189590 4.969420 18.494800
H 2.190370 5.004820 18.489000
H 2.997670 5.613480 18.430900
H 2.995080 5.653950 18.434700
H 1.277990 6.031400 20.740200
H 2.112070 5.562290 19.296500
H 1.352070 5.450260 19.937800
H 1.355510 5.438530 19.938600
H 2.108730 5.586560 19.298300
H 1.270440 6.032000 20.747200
H 0.810464 9.543820 18.670800
H 0.806731 9.536200 18.659100
H 0.856445 10.487800 18.248000
H 0.855428 10.480100 18.236500
H 2.027100 6.168300 20.107700
H 2.034550 6.155160 20.098100
H 3.540420 6.440900 18.828600
H 3.547680 6.402680 18.813700
H 2.791120 6.278920 19.455900
H 2.783760 6.304600 19.468100
H 3.680270 7.154810 19.565300
H 3.692250 7.125560 19.540700
H 2.702120 6.886340 20.277500
H 2.713600 6.871790 20.257500
H 3.377150 7.604390 20.447300
H 3.392640 7.588420 20.417000
H 0.893913 8.918000 19.485000
H 0.900162 8.925920 19.496600
H 1.101500 8.799630 20.504300
H 1.093610 8.791150 20.492900
H 1.171310 11.132800 19.258400
H 1.170400 11.124200 19.247400
H 1.316830 10.760700 20.175200
H 1.313840 10.751700 20.164300
H 1.060280 10.144000 19.411700
H 1.063650 10.152200 19.423000
H 1.209170 9.780150 20.339700
H 1.203720 9.771440 20.328600
H 1.957030 6.748030 20.899700
H 1.945470 6.750040 20.917000
H 1.059120 6.682650 21.780600
H 1.071440 6.696840 21.765200
H 1.863830 7.331780 21.726300
H 1.879520 7.340900 21.701300
H 2.729140 7.667240 21.207800
H 2.712290 7.669160 21.238300
H 1.352320 9.189630 21.412800
H 1.360540 9.198800 21.423800
H 1.772250 11.023300 22.092100
H 1.607870 10.016500 22.008700
H 1.600720 10.006700 21.998100
H 1.777210 11.033500 22.102300
H 1.457280 10.379200 21.081200
H 1.567390 11.359500 20.916900
H 1.570010 11.369100 20.927400
H 1.462350 10.388600 21.091900
H 1.424490 11.741200 20.010600
H 1.423950 11.732000 20.000000
H 1.275350 12.313800 18.915800
H 1.273110 12.322500 18.926600
H 1.532150 12.721700 19.846100
H 1.534060 12.712300 19.835700
H 1.733760 12.585400 20.843600
H 1.733490 12.595400 20.853700
H 1.823190 11.977500 21.679600
H 1.820940 11.967200 21.669500
H 1.026960 11.496800 18.330500
H 1.025790 11.504900 18.341700
H 32.884300 5.907640 21.382400
H 32.736800 5.181790 20.650000
H 32.739800 5.184760 20.655500
H 32.876700 5.895700 21.386700
H 33.040000 4.732210 19.768000
H 33.039400 4.721900 19.779200
H 11.174300 9.985020 15.982300
H 10.126900 10.647600 15.986500
H 8.656740 11.284000 16.645200
H 10.777000 10.575200 15.230100
H 10.296700 10.155800 16.840500
H 9.476710 10.719900 16.742900
H 10.031400 11.204200 14.883300
H 9.306910 11.211600 15.888800
H 7.779140 11.454800 17.503500
H 10.619600 9.500720 17.841800
H 8.826540 10.792200 17.499300
H 8.176370 10.864600 18.255700
H 9.646510 10.228100 17.596900
H 8.922020 10.235600 18.602500
H 9.816300 9.736390 18.451000
H 11.116600 9.591720 16.938200
H 9.137110 11.703400 15.034700
H 7.836770 11.848100 16.547500
H 8.333820 11.939100 15.643900
H 31.094200 16.380300 3.685300
H 31.984700 16.864500 3.474530
H 29.681200 16.566000 5.088590
H 30.251000 16.271000 4.276090
H 30.761000 17.025300 4.689820
H 32.684000 17.593900 3.700250
H 32.290900 19.287900 5.931010
H 29.537300 17.186000 5.905110
H 31.627800 17.322000 4.289040
H 30.914100 18.237000 5.918060
H 31.270900 17.779500 5.103550
H 31.780900 18.533700 5.517280
H 30.404100 17.482800 5.504330
H 33.004600 18.373000 4.301990
H 32.137800 18.076200 4.702770
H 32.860700 18.993000 5.118500
H 29.857900 17.965100 6.506840
H 30.557200 18.694500 6.732570
H 31.447700 19.178700 6.521800
H 30.153000 19.179900 13.384700
H 30.908100 19.837300 13.121000
H 31.682900 20.468100 13.392200
H 29.451900 18.449800 15.109800
H 29.620000 18.672000 14.112600
H 30.567400 19.459000 14.251000
H 30.216900 19.093900 15.113500
H 30.981900 19.738000 15.117200
H 31.332400 20.103100 14.254700
H 31.746900 20.382200 15.121000
H 32.343800 20.804100 16.121800
H 32.270000 20.903300 14.125600
H 32.511800 21.026300 15.124700
H 29.693800 18.572800 16.108900
H 30.280800 19.008000 16.842300
H 30.631400 19.373000 15.979800
H 31.396300 20.017100 15.983500
H 31.810800 20.296200 16.849800
H 31.055700 19.638800 17.113500
H 28.532600 27.242000 22.853400
H 29.069300 26.836900 23.640600
H 29.863100 26.885300 24.303500
H 30.701300 27.374200 24.664400
H 28.396700 27.992100 22.152900
H 28.698100 28.886200 21.726600
H 30.194300 30.173600 22.049900
H 29.356100 29.684700 21.689000
H 29.212700 28.260800 22.664800
H 29.549000 27.683200 23.408600
H 30.028700 28.529400 23.176700
H 30.365000 27.951800 23.920500
H 30.844700 28.798100 23.688600
H 30.508400 29.375700 22.944700
H 30.988100 30.222000 22.712800
H 31.524800 29.816800 23.499900
H 31.359300 28.172700 24.626700
H 31.660700 29.066700 24.200500
H 29.692400 29.107000 22.432800
H 16.641400 21.522400 5.918160
H 15.825800 21.094500 5.528640
H 16.142300 21.770500 4.811200
H 15.946300 20.647900 6.454820
H 16.471700 20.550200 7.341580
H 16.811100 22.494700 4.494740
H 17.134100 22.222500 5.401210
H 17.780000 21.678100 7.214150
H 17.457000 21.950300 6.307680
H 18.771800 22.130100 7.804160
H 16.964400 21.250200 6.824630
H 18.103000 21.405900 8.120620
H 17.261100 20.827600 7.951300
H 17.949700 22.650400 5.790730
H 18.442400 23.350500 5.273780
H 17.653000 23.073000 4.664060
H 19.088300 22.806100 7.086720
H 18.272700 22.378200 6.697200
H 18.967700 23.252800 6.160530
H 21.469900 27.085800 27.086600
H 20.206700 23.675000 25.802300
H 20.207200 23.667500 25.801800
H 20.861900 27.039700 26.249800
H 19.935500 24.543200 25.307800
H 19.937600 24.537400 25.309300
H 19.977200 25.568400 25.223700
H 19.973000 25.574100 25.220200
H 20.514700 24.838100 26.068600
H 20.511500 24.846800 26.066900
H 20.698300 25.820900 26.194400
H 20.703700 25.811600 26.197900
H 20.853900 27.049500 26.243900
H 20.309200 26.491500 25.562800
H 20.315600 26.484300 25.568000
H 21.280900 26.112300 26.957200
H 20.713900 23.191900 26.569200
H 20.713800 23.202000 26.571100
H 21.321900 23.238000 27.406000
H 21.321100 23.251100 27.408100
H 20.902900 24.165400 26.698600
H 20.900600 24.176100 26.698500
H 21.091900 25.138800 26.827900
H 21.087500 25.150300 26.826000
H 21.480100 24.466100 27.457800
H 21.476600 24.479700 27.457600
H 21.663400 25.453800 27.585100
H 21.669100 25.439600 27.587200
H 21.461100 27.098500 27.080900
H 21.274300 26.124400 26.953500
H 21.868200 23.793400 28.087800
H 21.865700 23.809100 28.089200
H 21.976600 26.610200 27.854000
H 21.968300 26.625600 27.849700
H 22.201900 24.726400 28.431800
H 22.239400 25.757300 28.344200
H 22.206600 24.709300 28.432100
H 22.246200 25.740300 28.346500
H 23.897600 21.722800 24.698600
H 23.907000 21.738300 24.679700
H 23.640200 21.191100 25.548800
H 23.652600 21.199700 25.526500
H 23.991000 22.064700 25.886200
H 23.966800 22.036600 26.384900
H 23.721700 21.544100 27.495500
H 23.570700 21.127500 26.579800
H 23.584800 21.128600 26.557200
H 24.024800 22.243700 26.869500
H 23.707800 21.549100 27.515400
H 24.671000 23.554400 24.335300
H 24.668600 23.533600 24.342400
H 24.274100 22.580300 24.257000
H 24.975900 24.345100 24.929900
H 24.975600 24.327500 24.931900
H 24.509900 23.249500 25.274000
H 24.658600 23.632900 25.577800
H 24.730800 23.852600 26.040500
H 24.307900 22.759300 25.240300
H 25.112700 24.749100 25.867500
H 25.112800 24.760600 25.868300
H 24.187700 22.639700 27.151400
H 24.348800 22.944600 26.212700
H 24.341700 22.938300 26.223700
H 24.692500 23.811900 26.561100
H 24.375500 23.117300 27.207000
H 24.569700 23.547700 26.979200
H 25.045000 24.689500 26.898900
H 25.043200 24.685500 26.898500
H 24.279700 22.600200 24.243700
H 24.127900 22.341500 25.446200
H 24.417800 23.289000 28.181700
H 24.409300 23.296300 28.190300
H 24.026600 22.334900 28.090100
H 24.790600 24.150900 27.745700
H 24.785800 24.153700 27.748700
H 24.014800 22.342900 28.104900
475
Atoms. Timestep: 100000
H 21.431700 5.989080 13.590300
H 21.733600 5.013160 13.758500
H 20.790700 4.688140 31.979500
H 20.774800 4.713940 31.964100
H 20.948500 5.719980 32.666800
H 21.783600 4.435010 31.831300
H 21.765400 4.452980 31.813700
H 21.833100 6.085760 32.959500
H 20.067000 5.344960 32.379700
H 20.077200 5.315770 32.390300
H 21.830000 6.095010 32.953900