LAMMPS (3 Mar 2020)
OMP_NUM_THREADS environment is not set. Defaulting to 1 thread. (src/comm.cpp:94)
  using 1 OpenMP thread(s) per MPI task
Reading restart file ...
  restart file = 3 Mar 2020, LAMMPS = 3 Mar 2020
  restoring atom style full from restart
  orthogonal box = (1.08266 1.08266 1.08266) to (33.9173 33.9173 33.9173)
  6 by 6 by 6 MPI processor grid
  restoring pair style hybrid/overlay from restart
  restoring bond style fene from restart
  28900 atoms
  8700 bonds
Finding 1-2 1-3 1-4 neighbors ...
  special bond factors lj:   0          1          1         
  special bond factors coul: 0          1          1         
  2 = max # of 1-2 neighbors
  6 = max # of special neighbors
  special bonds CPU = 2.51452 secs
  read_restart CPU = 2.65087 secs
Resetting global fix info from restart file:
  fix style: nvt, fix ID: pt
100 rigid bodies with 1900 atoms
Resetting global fix info from restart file:
  fix style: rigid/nvt, fix ID: ri
System init for write_data ...
PPPM initialization ...
  using 12-bit tables for long-range coulomb (src/kspace.cpp:332)
  G vector (1/distance) = 1.23006
  grid = 120 120 120
  stencil order = 5
  estimated absolute RMS force accuracy = 9.12113e-05
  estimated relative force accuracy = 9.12113e-05
  using double precision FFTW3
  3d grid and FFT values/proc = 19683 8400
All restart file global fix info was re-assigned
Unused restart file peratom fix info:
  fix style: STORE, fix ID: par_COMPUTE_STORE
WARNING: Neighbor exclusions used with KSpace solver may give inconsistent Coulombic energies (src/neighbor.cpp:486)
Neighbor list info ...
  update every 1 steps, delay 0 steps, check yes
  max neighbors/atom: 2000, page size: 100000
  master list distance cutoff = 2.8
  ghost atom cutoff = 2.8
  binsize = 1.4, bins = 24 24 24
  2 neighbor lists, perpetual/occasional/extra = 2 0 0
  (1) pair lj/cut, perpetual
      attributes: half, newton on
      pair build: half/bin/newton
      stencil: half/bin/3d/newton
      bin: standard
  (2) pair coul/long, perpetual, skip from (1)
      attributes: half, newton on
      pair build: skip
      stencil: none
      bin: none
PPPM initialization ...
  using 12-bit tables for long-range coulomb (src/kspace.cpp:332)
  G vector (1/distance) = 1.23006
  grid = 120 120 120
  stencil order = 5
  estimated absolute RMS force accuracy = 9.12113e-05
  estimated relative force accuracy = 9.12113e-05
  using double precision FFTW3
  3d grid and FFT values/proc = 19683 8400
WARNING: Neighbor exclusions used with KSpace solver may give inconsistent Coulombic energies (src/neighbor.cpp:486)
Neighbor list info ...
  update every 1 steps, delay 0 steps, check yes
  max neighbors/atom: 2000, page size: 100000
  master list distance cutoff = 2.8
  ghost atom cutoff = 2.8
  binsize = 1.4, bins = 24 24 24
  2 neighbor lists, perpetual/occasional/extra = 2 0 0
  (1) pair lj/cut, perpetual
      attributes: half, newton on
      pair build: half/bin/newton
      stencil: half/bin/3d/newton
      bin: standard
  (2) pair coul/long, perpetual, skip from (1)
      attributes: half, newton on
      pair build: skip
      stencil: none
      bin: none
Setting up Verlet run ...
  Unit style    : lj
  Current step  : 12000000
  Time step     : 0.005
Per MPI rank memory allocation (min/avg/max) = 11 | 11.05 | 11.19 Mbytes
Step Temp Press Volume 
12000000   0.79204353 -0.0024355515    35399.607 
12010000   0.79630812  -0.21549675    35399.607 
12020000   0.80495688 -0.038708564    35399.607 
12030000   0.80289229  -0.24642692    35399.607 
12040000   0.80580847  -0.15171225    35399.607 
12050000   0.80118936  -0.18952128    35399.607 
12060000   0.80016003  -0.22364314    35399.607 
12070000   0.79087898  -0.14229388    35399.607 
12080000   0.80023621 -0.077156092    35399.607 
12090000   0.79675524  -0.18547662    35399.607 
12100000   0.79556932  -0.22040183    35399.607 
12110000   0.79605832 -0.059991634    35399.607 
12120000   0.79848498 -0.053212895    35399.607 
12130000   0.80393014 -0.055365537    35399.607 
12140000   0.79994478    -0.112476    35399.607 
12150000   0.79495766 0.0012968989    35399.607 
12160000   0.80201305  -0.22103186    35399.607 
12170000   0.81104097  -0.18678745    35399.607 
12180000   0.80332719  -0.11381993    35399.607 
12190000    0.8088568  -0.11693816    35399.607 
12200000   0.80419397  -0.10249302    35399.607 
12210000   0.80030427  -0.17278032    35399.607 
12220000    0.8045875  -0.13368111    35399.607 
12230000   0.80496453  -0.15364159    35399.607 
12240000   0.80958926  -0.10188797    35399.607 
12250000   0.80029585  -0.20440503    35399.607 
12260000   0.80220902  -0.19799154    35399.607 
12270000   0.80019379 -0.052384677    35399.607 
12280000   0.79441047  -0.18502773    35399.607 
12290000   0.79660019  -0.12474221    35399.607 
12300000   0.80106449  -0.18784245    35399.607 
12310000   0.80037385  -0.04277416    35399.607 
12320000   0.79368743  -0.16726489    35399.607 
12330000   0.80013729  -0.10931489    35399.607 
12340000   0.80189861  -0.17961518    35399.607 
12350000   0.80046342  -0.12648167    35399.607 
12360000   0.80024581 -0.065236332    35399.607 
12370000   0.80037037 -0.061379416    35399.607 
12380000   0.80021742 -0.081161276    35399.607 
12390000   0.80756887  -0.12449799    35399.607 
12400000   0.80389871 -0.086199796    35399.607 
12410000    0.8019915  -0.16776931    35399.607 
12420000   0.79613983  -0.13379787    35399.607 
12430000   0.80107294  -0.14614317    35399.607 
12440000   0.79113944  -0.17791798    35399.607 
12450000   0.80559811  -0.14184952    35399.607 
12460000   0.80144141  -0.17868012    35399.607 
12470000   0.80305894 -0.053523313    35399.607 
12480000   0.80790112  -0.25640858    35399.607 
12490000   0.79688007 -0.089854181    35399.607 
12500000    0.8012001  -0.21432713    35399.607 
12510000   0.79492223  -0.13102886    35399.607 
12520000   0.79407704  -0.19324099    35399.607 
12530000   0.79957048  -0.12808238    35399.607 
12540000   0.79619786  -0.15450437    35399.607 
12550000   0.80152373  -0.16325952    35399.607 
12560000   0.80266564  -0.12303057    35399.607 
12570000    0.7989272  -0.17276432    35399.607 
12580000   0.79902404  -0.11509914    35399.607 
12590000    0.7975929 -0.080006496    35399.607 
12600000   0.79909997  -0.12579468    35399.607 
12610000   0.80315207  -0.11419875    35399.607 
12620000   0.79810297  -0.20401911    35399.607 
12630000   0.80098836  -0.10982991    35399.607 
12640000   0.80110946  -0.10333342    35399.607 
12650000   0.80206554  -0.15466768    35399.607 
12660000   0.79660449  -0.13148556    35399.607 
12670000   0.79365637  -0.11192411    35399.607 
12680000   0.79637737  -0.16757597    35399.607 
12690000   0.79476335  -0.15766534    35399.607 
12700000   0.80434455  -0.14027076    35399.607 
12710000   0.80298875  -0.15180027    35399.607 
12720000   0.80162157 -0.075333978    35399.607 
12730000   0.80154938  -0.13481635    35399.607 
12740000   0.80323296 -0.099660463    35399.607 
12750000    0.8017701  -0.17752964    35399.607 
12760000    0.7974561  -0.15033162    35399.607 
12770000   0.80654466  -0.19881625    35399.607 
12780000   0.79709042  -0.25489594    35399.607 
12790000   0.78923947  -0.19074863    35399.607 
12800000   0.80590835  -0.23903654    35399.607 
12810000   0.79772133  -0.10070755    35399.607 
12820000   0.80248194  -0.12061253    35399.607 
12830000   0.79797936 -0.075830725    35399.607 
12840000   0.79463786  -0.09880742    35399.607 
12850000    0.8076232  -0.12854037    35399.607 
12860000   0.80276137  -0.12068719    35399.607 
12870000   0.80729183  -0.15347638    35399.607 
12880000   0.80453616  -0.14523326    35399.607 
12890000   0.80429971  -0.17718321    35399.607 
12900000   0.79700564     -0.09555    35399.607 
12910000   0.79773863  -0.11929062    35399.607 
12920000   0.79745567  -0.11705753    35399.607 
12930000   0.80247605  -0.12930179    35399.607 
12940000   0.80095284 -0.098636593    35399.607 
12950000   0.80284706  -0.21659351    35399.607 
12960000   0.80296325  -0.13010687    35399.607 
12970000   0.80129713  -0.11866605    35399.607 
12980000   0.79861055  -0.15623976    35399.607 
12990000   0.80414557   -0.1282083    35399.607 
13000000   0.80205282  -0.20502931    35399.607 
Loop time of 15260.6 on 216 procs for 1000000 steps with 28900 atoms

Performance: 28308.209 tau/day, 65.528 timesteps/s
99.7% CPU use with 216 MPI tasks x 1 OpenMP threads

MPI task timing breakdown:
Section |  min time  |  avg time  |  max time  |%varavg| %total
---------------------------------------------------------------
Pair    | 97.328     | 232.2      | 438.33     | 430.3 |  1.52
Bond    | 1.2521     | 2.2967     | 3.3909     |  30.7 |  0.02
Kspace  | 13677      | 13928      | 14066      |  68.9 | 91.27
Neigh   | 167.08     | 173.67     | 182.05     |  20.4 |  1.14
Comm    | 296.37     | 372.02     | 597.92     | 294.9 |  2.44
Output  | 0.013875   | 0.015606   | 0.025347   |   0.8 |  0.00
Modify  | 407.15     | 443.99     | 495.2      |  80.4 |  2.91
Other   |            | 108        |            |       |  0.71

Nlocal:    133.796 ave 276 max 5 min
Histogram: 4 4 6 9 134 39 12 4 3 1
Nghost:    973.815 ave 1311 max 261 min
Histogram: 1 3 3 6 6 16 86 58 33 4
Neighs:    5225.32 ave 16593 max 28 min
Histogram: 8 11 108 56 18 8 3 2 1 1

Total # of neighbors = 1128670
Ave neighs/atom = 39.0543
Ave special neighs/atom = 0.602076
Neighbor list builds = 134200
Dangerous builds = 0
PPPM initialization ...
  using 12-bit tables for long-range coulomb (src/kspace.cpp:332)
  G vector (1/distance) = 1.23006
  grid = 120 120 120
  stencil order = 5
  estimated absolute RMS force accuracy = 9.12113e-05
  estimated relative force accuracy = 9.12113e-05
  using double precision FFTW3
  3d grid and FFT values/proc = 19683 8400
WARNING: Neighbor exclusions used with KSpace solver may give inconsistent Coulombic energies (src/neighbor.cpp:486)
Neighbor list info ...
  update every 1 steps, delay 0 steps, check yes
  max neighbors/atom: 2000, page size: 100000
  master list distance cutoff = 2.8
  ghost atom cutoff = 2.8
  binsize = 1.4, bins = 24 24 24
  7 neighbor lists, perpetual/occasional/extra = 2 5 0
  (1) pair lj/cut, perpetual
      attributes: half, newton on
      pair build: half/bin/newton
      stencil: half/bin/3d/newton
      bin: standard
  (2) pair coul/long, perpetual, skip from (1)
      attributes: half, newton on
      pair build: skip
      stencil: none
      bin: none
  (3) compute rdf, occasional, copy from (1)
      attributes: half, newton on
      pair build: copy
      stencil: none
      bin: none
  (4) compute rdf, occasional, copy from (1)
      attributes: half, newton on
      pair build: copy
      stencil: none
      bin: none
  (5) compute rdf, occasional, copy from (1)
      attributes: half, newton on
      pair build: copy
      stencil: none
      bin: none
  (6) compute rdf, occasional, copy from (1)
      attributes: half, newton on
      pair build: copy
      stencil: none
      bin: none
  (7) compute rdf, occasional, copy from (1)
      attributes: half, newton on
      pair build: copy
      stencil: none
      bin: none
Setting up Verlet run ...
  Unit style    : lj
  Current step  : 0
  Time step     : 0.005
Per MPI rank memory allocation (min/avg/max) = 17.6 | 20.1 | 20.75 Mbytes
Step Temp Press PotEng KinEng E_pair E_bond TotEng 
       0   0.80205282  -0.18773147   -1.9983468    1.1322682   -8.2199655    6.2216187  -0.86607858 
   10000   0.79237143   -0.1722563   -1.9770264    1.1186009   -8.2003645    6.2233381  -0.85842546 
   20000    0.7972815  -0.16192126   -1.9718478    1.1255325   -8.1902289    6.2183811  -0.84631531 
   30000   0.80113821  -0.17662047   -1.9875671    1.1309771    -8.208185    6.2206179  -0.85659001 
   40000    0.7970829  -0.17325231   -1.9882497    1.1252521    -8.206247    6.2179973  -0.86299755 
   50000    0.7950537  -0.08812394   -1.9793034    1.1223875    -8.198627    6.2193236  -0.85691587 
   60000   0.79031913  -0.16850638   -1.9731705    1.1157036   -8.1938249    6.2206544  -0.85746691 
   70000   0.80012925  -0.19359102   -1.9780945    1.1295527   -8.2010332    6.2229388  -0.84854176 
   80000   0.79361089  -0.14633065    -1.990529    1.1203507   -8.2104429    6.2199139  -0.87017838 
   90000   0.79505043 -0.075149677   -1.9999084    1.1223829    -8.219615    6.2197066  -0.87752554 
  100000   0.79884679  -0.16876053   -1.9778924    1.1277422   -8.1970074     6.219115  -0.85015017 
  110000   0.79705093  -0.11948742   -1.9907207     1.125207   -8.2109968    6.2202761  -0.86551374 
  120000   0.80119438  -0.17236221   -1.9924122    1.1310564   -8.2104342    6.2180219  -0.86135588 
  130000   0.80338206  -0.10703249   -1.9757179    1.1341447    -8.195507    6.2197891  -0.84157316 
  140000   0.80459225  -0.22040187   -1.9810187    1.1358532   -8.1978231    6.2168045   -0.8451655 
  150000    0.7989212  -0.12437784   -2.0028506    1.1278473   -8.2199298    6.2170792  -0.87500328 
  160000   0.79609912  -0.15934153   -1.9881356    1.1238633   -8.2113988    6.2232632  -0.86427226 
  170000   0.80398226  -0.21790413   -1.9868218    1.1349921   -8.2078693    6.2210475  -0.85182977 
  180000     0.801041 -0.085785687   -1.9749263    1.1308398   -8.1966768    6.2217505  -0.84408648 
  190000   0.79994258  -0.14012748   -1.9908533    1.1292892   -8.2064949    6.2156416  -0.86156417 
  200000   0.79851522  -0.10812987   -1.9820348    1.1272742   -8.2011092    6.2190744   -0.8547606 
  210000   0.80298858  -0.10816128    -1.980481    1.1335893   -8.2020656    6.2215846  -0.84689177 
  220000   0.80570942    -0.247622    -1.988599    1.1374303   -8.2068058    6.2182068  -0.85116865 
  230000   0.79826671  -0.24572628   -1.9884672    1.1269233   -8.2100207    6.2215536  -0.86154382 
  240000   0.79879776  -0.16976637   -1.9781546     1.127673   -8.2008444    6.2226898  -0.85048159 
  250000   0.79968393  -0.22588889   -1.9934562     1.128924     -8.21175    6.2182938  -0.86453212 
  260000   0.79956694  -0.24552546   -1.9772219    1.1287589    -8.195192    6.2179701    -0.848463 
  270000   0.80326977  -0.20626831   -1.9783868    1.1339862    -8.196002    6.2176152  -0.84440054 
  280000   0.80891675  -0.18915313   -2.0024661    1.1419581   -8.2208497    6.2183836  -0.86050798 
  290000   0.79883243  -0.21247295   -1.9816945     1.127722   -8.2037459    6.2220514  -0.85397253 
  300000   0.79798464  -0.10251855   -1.9866227    1.1265251   -8.2065037     6.219881  -0.86009752 
  310000   0.80300954 -0.094874097   -1.9777266    1.1336188   -8.2002972    6.2225706  -0.84410771 
  320000   0.80076408   -0.2116261   -1.9748902    1.1304489   -8.1940174    6.2191273  -0.84444127 
  330000   0.80264331  -0.12616834   -1.9919925    1.1331018   -8.2121497    6.2201572  -0.85889068 
  340000   0.80254625  -0.10765425   -1.9853057    1.1329648   -8.2065764    6.2212707  -0.85234088 
  350000   0.80042769  -0.13225315   -1.9794172     1.129974   -8.1927422    6.2133251  -0.84944313 
  360000   0.80628287  -0.15756487   -1.9794149    1.1382399   -8.1989146    6.2194997  -0.84117506 
  370000   0.79990103 -0.081579914   -1.9796409    1.1292305   -8.2002536    6.2206127  -0.85041033 
  380000   0.80068998  -0.23613042   -1.9876615    1.1303443   -8.2085159    6.2208545   -0.8573172 
  390000   0.79814175  -0.17480847   -1.9831406    1.1267469   -8.2040215    6.2208809  -0.85639368 
  400000   0.80117219  -0.15286105   -1.9865829     1.131025   -8.2058584    6.2192755  -0.85555786 
  410000   0.79669619  -0.12130149   -1.9890005    1.1247062   -8.2094333    6.2204329  -0.86429425 
  420000   0.80206631   -0.1305608   -1.9806169    1.1322873   -8.2014151    6.2207982  -0.84832958 
  430000   0.79994001  -0.11316099   -1.9817514    1.1292856   -8.1985871    6.2168357  -0.85246583 
  440000   0.79444451  -0.19516683   -1.9938105    1.1215275   -8.2136508    6.2198404  -0.87228298 
  450000   0.80469051  -0.22176787   -1.9866685    1.1359919   -8.2073981    6.2207296  -0.85067661 
  460000   0.80456584 -0.084174013   -1.9702576    1.1358159   -8.1899107     6.219653  -0.83444173 
  470000   0.80177495  -0.13469048   -2.0002933     1.131876   -8.2204147    6.2201214  -0.86841737 
  480000   0.79576423   -0.1804946   -1.9868718    1.1233905   -8.2036969    6.2168251  -0.86348124 
  490000   0.79994609  -0.18407777   -2.0021786    1.1292941   -8.2213554    6.2191768  -0.87288451 
  500000   0.79568701  -0.13200766   -1.9694215    1.1232815   -8.1891961    6.2197746  -0.84613996 
  510000    0.7980098  -0.14228835    -1.979175    1.1265607   -8.2021889    6.2230139  -0.85261437 
  520000   0.79830442  -0.18111853   -1.9792647    1.1269766   -8.1996412    6.2203765  -0.85228815 
  530000   0.80219723  -0.11476624   -1.9970398    1.1324721   -8.2190058     6.221966  -0.86456771 
  540000   0.79815673  -0.12154601   -1.9806306    1.1267681   -8.1991111    6.2184805  -0.85386254 
  550000   0.80515676 -0.060206746   -1.9813161    1.1366501   -8.2041244    6.2228083  -0.84466599 
  560000   0.80136141  -0.15871024   -1.9828645    1.1312922   -8.2011661    6.2183016  -0.85157233 
  570000   0.79886335   -0.1876681   -1.9784603    1.1277656   -8.2038035    6.2253432  -0.85069469 
  580000   0.79544261  -0.18325354   -1.9923649    1.1229365   -8.2105114    6.2181465  -0.86942839 
  590000   0.80468211  -0.15717217   -1.9824148      1.13598   -8.2032986    6.2208837   -0.8464348 
  600000   0.79910725  -0.08622163   -1.9904956    1.1281099   -8.2118956       6.2214  -0.86238566 
  610000   0.79249733 -0.018926247   -1.9930807    1.1187786   -8.2114835    6.2184029  -0.87430203 
  620000   0.80033737  -0.18003811   -1.9985799    1.1298465   -8.2205666    6.2219867  -0.86873337 
  630000   0.80074641  -0.11248429   -1.9981061     1.130424   -8.2161987    6.2180926  -0.86768216 
  640000   0.79421036  -0.14021524   -1.9884394    1.1211969   -8.2096074     6.221168  -0.86724244 
  650000   0.79850913  -0.13877978   -1.9957255    1.1272656   -8.2150914    6.2193659  -0.86845993 
  660000   0.80126712  -0.17713297   -1.9915258    1.1311591   -8.2144401    6.2229143  -0.86036676 
  670000   0.79729537  -0.12484004   -1.9833691    1.1255521   -8.2079383    6.2245692  -0.85781701 
  680000   0.79442853  -0.15322433   -1.9774513    1.1215049    -8.200709    6.2232577  -0.85594635 
  690000   0.79778412  -0.10651613   -1.9715167    1.1262421   -8.1931253    6.2216085  -0.84527469 
  700000   0.80353099 -0.064899181    -1.984144     1.134355   -8.2050317    6.2208877  -0.84978904 
  710000   0.79621372  -0.17368617   -1.9945071    1.1240251   -8.2127805    6.2182734  -0.87048201 
  720000   0.80218584  -0.14645814   -1.9802656     1.132456   -8.2003014    6.2200358  -0.84780956 
  730000   0.79724856  -0.17586365   -1.9809578     1.125486   -8.2027684    6.2218107  -0.85547175 
  740000   0.80116511  -0.18349218   -1.9627884     1.131015   -8.1851937    6.2224053  -0.83177337 
  750000   0.79949012 -0.077073903   -1.9816923    1.1286504   -8.2032126    6.2215203  -0.85304184 
  760000   0.80380006  -0.11657879   -1.9966373    1.1347348   -8.2165677    6.2199304   -0.8619025 
  770000     0.795198  -0.10161294   -1.9889635    1.1225912   -8.2102113    6.2212478  -0.86637233 
  780000   0.80140616 -0.094395574   -1.9828073    1.1313553   -8.2046731    6.2218658  -0.85145194 
  790000   0.80002434  -0.16550597   -1.9916538    1.1294046   -8.2130755    6.2214217  -0.86224922 
  800000    0.7992681  -0.17722175    -1.985954     1.128337   -8.2050509    6.2190968    -0.857617 
  810000   0.79532193 -0.034290294   -1.9781063    1.1227662   -8.1982266    6.2201203  -0.85534015 
  820000   0.80426443  -0.20755739   -1.9822468    1.1353904   -8.2021318     6.219885  -0.84685638 
  830000   0.80139104  -0.11354102    -1.996125     1.131334   -8.2153464    6.2192214  -0.86479099 
  840000   0.80345507  -0.12275292   -1.9838765    1.1342478   -8.2053546    6.2214781  -0.84962872 
  850000   0.80237519  -0.19061526   -1.9885854    1.1327233   -8.2054886    6.2169032  -0.85586212 
  860000   0.79317752  -0.10390111   -1.9803335    1.1197389   -8.2007973    6.2204638  -0.86059467 
  870000   0.79449421  -0.18194598    -1.974088    1.1215977    -8.193647     6.219559  -0.85249033 
  880000   0.79651809 -0.097440786   -1.9952618    1.1244548   -8.2145373    6.2192755  -0.87080701 
  890000   0.80200141  -0.14444875   -1.9671609    1.1321957   -8.1892711    6.2221102  -0.83496523 
  900000   0.79593307  -0.10975401   -1.9766735    1.1236289   -8.1946386    6.2179651  -0.85304462 
  910000   0.80089304  -0.25593781    -1.975863     1.130631   -8.1929283    6.2170653  -0.84523207 
  920000    0.7950156  -0.16504817   -1.9756594    1.1223337   -8.1962297    6.2205703  -0.85332566 
  930000   0.80020888  -0.13749236   -1.9954259    1.1296651   -8.2136612    6.2182353  -0.86576076 
  940000   0.79793976 -0.078077663   -1.9886137    1.1264618   -8.2113284    6.2227147  -0.86215188 
  950000   0.79546942  -0.12832192   -1.9736496    1.1229744   -8.1950825     6.221433  -0.85067523 
  960000     0.802781  -0.17918036   -1.9923295    1.1332962   -8.2093564    6.2170269  -0.85903326 
  970000   0.79234624  -0.16054994   -1.9965962    1.1185653   -8.2178217    6.2212255  -0.87803091 
  980000   0.79998432  -0.14480958   -1.9799708    1.1293481   -8.2003783    6.2204075   -0.8506227 
  990000   0.79554971   -0.1289871   -1.9786654    1.1230877   -8.1972513    6.2185858  -0.85557774 
 1000000   0.79732883 -0.090001442   -1.9724137    1.1255993   -8.1897461    6.2173324  -0.84681441 
 1010000   0.80215222  -0.19047692   -1.9841441    1.1324086   -8.2036237    6.2194797  -0.85173551 
 1020000   0.80176353  -0.19537831   -1.9914518    1.1318598   -8.2104898     6.219038  -0.85959196 
 1030000   0.79778647  -0.10922648   -1.9828577    1.1262454   -8.2003636    6.2175059  -0.85661232 
 1040000   0.80038465 -0.081451327   -1.9838812    1.1299133   -8.2037582    6.2198769  -0.85396797 
 1050000   0.79981717  -0.10083249   -1.9947966    1.1291121   -8.2195472    6.2247506  -0.86568444 
 1060000   0.80540716  -0.17992408   -1.9848819    1.1370036   -8.2028717    6.2179898  -0.84787829 
 1070000   0.80370734  -0.15454716   -1.9763365    1.1346039   -8.1982086    6.2218721  -0.84173259 
 1080000     0.798253  -0.18199389   -1.9869456     1.126904   -8.2093807    6.2224351  -0.86004164 
 1090000    0.8060575   -0.1059903   -1.9901663    1.1379217   -8.2102946    6.2201283  -0.85224462 
 1100000   0.79842395  -0.20059481   -1.9831342    1.1271453   -8.2051386    6.2220044   -0.8559889 
 1110000   0.79854801  -0.10734717   -1.9748852    1.1273205   -8.1940723    6.2191871  -0.84756478 
 1120000   0.80197389  -0.16294291   -1.9917096    1.1321568   -8.2139019    6.2221923  -0.85955279 
 1130000   0.80117387  -0.20993281   -1.9831144    1.1310274   -8.2034529    6.2203384  -0.85208702 
 1140000   0.79402129 -0.087298142   -1.9958993      1.12093   -8.2175325    6.2216333  -0.87496926 
 1150000   0.79809626  -0.15598563   -1.9998411    1.1266827   -8.2197489    6.2199078  -0.87315842 
 1160000   0.80571649  -0.10725487   -1.9871924    1.1374403   -8.2091401    6.2219477  -0.84975214 
 1170000   0.80264677  -0.19974773   -2.0023517    1.1331067   -8.2181736    6.2158219  -0.86924497 
 1180000   0.80018484  -0.12556358   -1.9847567    1.1296312   -8.2030208    6.2182641  -0.85512551 
 1190000   0.79829045  -0.16884031   -1.9883079    1.1269568   -8.2097432    6.2214353  -0.86135107 
 1200000   0.79608994 -0.0076256007   -1.9831309    1.1238504    -8.201696    6.2185651  -0.85928053 
 1210000   0.80032712  -0.21596616    -1.987444     1.129832   -8.2067349     6.219291  -0.85761194 
 1220000   0.79986177  -0.13404859   -1.9881076    1.1291751   -8.2087707    6.2206631  -0.85893254 
 1230000    0.7948717  -0.18218741    -1.987156    1.1221306   -8.2089653    6.2218093  -0.86502541 
 1240000   0.79888393  -0.10096185   -1.9801095    1.1277947   -8.2007686    6.2206591  -0.85231481 
 1250000   0.80332386 -0.062975615   -1.9878266    1.1340626   -8.2102022    6.2223756  -0.85376405 
 1260000   0.79918684 -0.087818698   -1.9895381    1.1282223   -8.2105717    6.2210336  -0.86131579 
 1270000   0.79912575  -0.12038347    -1.990112    1.1281361   -8.2101394    6.2200274  -0.86197598 
 1280000   0.79967871   -0.1413371   -1.9933405    1.1289167   -8.2150237    6.2216832  -0.86442381 
 1290000   0.79435039   -0.1684242   -1.9774566    1.1213946   -8.1987365    6.2212799  -0.85606199 
 1300000   0.80195371 -0.084650802   -1.9854948    1.1321283   -8.2059879    6.2204931  -0.85336651 
 1310000   0.80268187  -0.18196598   -1.9839298    1.1331563   -8.2043604    6.2204307  -0.85077349 
 1320000   0.80321634  -0.15978867   -1.9858454    1.1339108   -8.2080292    6.2221838  -0.85193459 
 1330000   0.79917223  -0.19530689   -1.9812378    1.1282017   -8.2025287     6.221291  -0.85303608 
 1340000    0.7932012  -0.20638714    -1.982839    1.1197723   -8.1992023    6.2163632  -0.86306675 
 1350000   0.79856258 -0.047122975   -1.9861917     1.127341   -8.2058984    6.2197067  -0.85885066 
 1360000   0.80055518  -0.13799512   -1.9674834     1.130154   -8.1885065    6.2210231  -0.83732939 
 1370000   0.79749484  -0.22831062   -1.9843652    1.1258337   -8.2052973     6.220932  -0.85853155 
 1380000   0.79379836  -0.17368763   -1.9673722    1.1206153   -8.1871187    6.2197465  -0.84675688 
 1390000   0.79964488 -0.094715355   -1.9929286    1.1288689   -8.2138417    6.2209131  -0.86405969 
 1400000   0.79769416  -0.17036684    -1.980339    1.1261151     -8.20169     6.221351  -0.85422395 
 1410000   0.80518961  -0.15238011   -1.9940748    1.1366965   -8.2145605    6.2204857  -0.85737828 
 1420000   0.80239474  -0.14004981    -1.971487    1.1327509   -8.1939068    6.2224199  -0.83873602 
 1430000   0.80583447 -0.074519451   -1.9635223    1.1376068   -8.1835682    6.2200459  -0.82591547 
 1440000   0.80791184  -0.14100078   -1.9733527    1.1405395   -8.1921513    6.2187985  -0.83281326 
 1450000   0.80283821  -0.20428052   -1.9756365     1.133377   -8.1951525     6.219516  -0.84225951 
 1460000   0.80007162 -0.090325108   -1.9840386    1.1294713   -8.2048006    6.2207621  -0.85456721 
 1470000   0.79865605  -0.12057905   -1.9866998     1.127473   -8.2062799    6.2195801  -0.85922683 
 1480000   0.79303365  -0.16849692   -2.0033525    1.1195358   -8.2191171    6.2157646  -0.88381674 
 1490000   0.80587866 -0.095218841   -1.9783676    1.1376692   -8.2015082    6.2231407  -0.84069835 
 1500000   0.79969746  -0.18914571   -1.9894735    1.1289431    -8.209702    6.2202285  -0.86053032 
 1510000   0.79300107  -0.20411651   -1.9898257    1.1194898   -8.2111517     6.221326  -0.87033598 
 1520000   0.80144818  -0.10610161   -1.9924824    1.1314147   -8.2121775    6.2196952  -0.86106771 
 1530000   0.79833937  -0.10461781   -1.9965228    1.1270259   -8.2171474    6.2206246  -0.86949686 
 1540000   0.80482142  -0.22358059   -1.9801586    1.1361767   -8.2016053    6.2214467  -0.84398192 
 1550000   0.80079139  -0.14661583   -1.9887869    1.1304875   -8.2098107    6.2210237  -0.85829949 
 1560000   0.80588921  -0.19668489   -1.9811218    1.1376841   -8.2030537    6.2219319   -0.8434377 
 1570000   0.80234562  -0.13823917   -1.9963076    1.1326816   -8.2136732    6.2173656  -0.86362606 
 1580000   0.80491372  -0.10443889   -1.9778522     1.136307    -8.202289    6.2244368  -0.84154516 
 1590000   0.80490517  -0.15567363      -1.9769    1.1362949   -8.1958117    6.2189116  -0.84060508 
 1600000   0.79592356 -0.087394338   -1.9821525    1.1236155   -8.2040582    6.2219057  -0.85853703 
 1610000   0.79824939 -0.093148906    -1.972566    1.1268989   -8.1951011    6.2225351   -0.8456671 
 1620000   0.80098462  -0.18225535   -1.9895465    1.1307602   -8.2113957    6.2218491   -0.8587863 
 1630000   0.80104663  -0.11615336   -1.9862555    1.1308478   -8.2114351    6.2251796  -0.85540768 
 1640000   0.79770107   -0.1801097   -1.9721045    1.1261248   -8.1937022    6.2215977  -0.84597965 
 1650000   0.80385358  -0.13610009   -1.9694621    1.1348104   -8.1875988    6.2181367  -0.83465174 
 1660000   0.80451611  -0.12773164   -1.9756187    1.1357457   -8.1953647    6.2197461  -0.83987298 
 1670000   0.80131929  -0.17793076   -1.9985327    1.1312327   -8.2167302    6.2181974  -0.86730003 
 1680000    0.7954648  -0.12583577    -1.992845    1.1229678   -8.2151977    6.2223527  -0.86987718 
 1690000    0.8006074  -0.10736787   -1.9693932    1.1302277   -8.1891903    6.2197971  -0.83916551 
 1700000   0.79345569  -0.11671774   -1.9828019    1.1201316    -8.206207    6.2234051  -0.86267038 
 1710000   0.80056073  -0.08100372   -1.9784895    1.1301618    -8.202634    6.2241445  -0.84832767 
 1720000   0.79925611  -0.15438804    -1.975511    1.1283201   -8.1970063    6.2214953  -0.84719088 
 1730000   0.79573448  -0.16462783   -1.9766339    1.1233486   -8.1968887    6.2202548  -0.85328532 
 1740000    0.8015605   -0.2111893   -1.9922765    1.1315732   -8.2117822    6.2195057  -0.86070329 
 1750000    0.7971194  -0.16080692   -1.9982188    1.1253037   -8.2198937    6.2216749  -0.87291509 
 1760000   0.80440681  -0.18402319    -1.991735    1.1355914   -8.2120077    6.2202727  -0.85614363 
 1770000    0.7974563  -0.10676214   -1.9920693    1.1257793   -8.2106898    6.2186205  -0.86629003 
 1780000   0.80462788  -0.13755918   -1.9711969    1.1359035   -8.1935758    6.2223789  -0.83529347 
 1790000   0.79864024  -0.16600176    -1.969841    1.1274507   -8.1891647    6.2193236  -0.84239038 
 1800000   0.79904192  -0.18464045   -1.9861495    1.1280177   -8.2056328    6.2194833  -0.85813177 
 1810000   0.80811034 -0.095710123   -1.9877512    1.1408197   -8.2091954    6.2214442  -0.84693148 
 1820000   0.80143777 -0.086070623   -1.9967284       1.1314   -8.2140192    6.2172908  -0.86532846 
 1830000    0.7951627  -0.13223314   -1.9948328    1.1225414   -8.2163873    6.2215545  -0.87229144 
 1840000   0.80164055  -0.15699039   -1.9782922    1.1316862   -8.1967587    6.2184665  -0.84660596 
 1850000   0.79908547  -0.26125422   -1.9784829    1.1280792   -8.1995588    6.2210759  -0.85040368 
 1860000   0.80321651  -0.10483244   -1.9781394     1.133911   -8.2004517    6.2223122  -0.84422842 
 1870000   0.79832711  -0.23940691   -1.9740867    1.1270086   -8.1938816    6.2197949  -0.84707814 
 1880000   0.80330215  -0.14444171   -1.9848673    1.1340319   -8.2016907    6.2168234  -0.85083533 
 1890000   0.80374916  -0.12400373   -1.9911731     1.134663   -8.2135844    6.2224114  -0.85651007 
 1900000   0.80496683 -0.094086805   -1.9917904     1.136382   -8.2114396    6.2196492  -0.85540839 
 1910000   0.80028178  -0.17794956    -1.992347     1.129768   -8.2118362    6.2194892  -0.86257902 
 1920000   0.79957089   -0.1646199   -1.9788949    1.1287645   -8.2011583    6.2222633  -0.85013047 
 1930000   0.80056957  -0.24342945   -1.9864225    1.1301743   -8.2055873    6.2191648  -0.85624822 
 1940000   0.79796996  -0.14102464   -1.9845919    1.1265044   -8.2063198     6.221728  -0.85808745 
 1950000   0.80402077  -0.10835186   -1.9902296    1.1350464   -8.2094563    6.2192267  -0.85518323 
 1960000   0.79475873 -0.068267816   -1.9748993    1.1219711   -8.1966246    6.2217254   -0.8529282 
 1970000   0.80102506  -0.20658611   -2.0006088    1.1308173   -8.2208417    6.2202329  -0.86979149 
 1980000   0.79133829  -0.10183236   -1.9763493    1.1171424   -8.2003861    6.2240369  -0.85920689 
 1990000   0.80179557  -0.12121386   -1.9821266    1.1319051   -8.1994342    6.2173077   -0.8502215 
 2000000     0.802553   -0.1130136   -1.9845872    1.1329743   -8.2048887    6.2203015  -0.85161289 
 2010000   0.79352271  -0.23921386   -1.9887251    1.1202262   -8.2084042     6.219679  -0.86849897 
 2020000   0.80591351  -0.14301499   -1.9889715    1.1377184   -8.2082392    6.2192677  -0.85125305 
 2030000   0.80595729  -0.12101316   -1.9822335    1.1377802   -8.2034041    6.2211705  -0.84445332 
 2040000   0.79636773   -0.2529379   -1.9922498    1.1242425   -8.2096139    6.2173641  -0.86800729 
 2050000   0.80229133  -0.12714932   -1.9882533    1.1326049   -8.2102448    6.2219915  -0.85564832 
 2060000   0.79332268  -0.14319181   -1.9922687    1.1199438   -8.2113758    6.2191071   -0.8723249 
 2070000   0.79692665  -0.10620428   -1.9763732    1.1250316   -8.1958328    6.2194595  -0.85134169 
 2080000   0.79674354 -0.032419484   -1.9900542    1.1247731   -8.2117968    6.2217426  -0.86528114 
 2090000   0.80043752 -0.096850163   -1.9820909    1.1299879   -8.2036848    6.2215939  -0.85210299 
 2100000   0.79173218  -0.17180542   -1.9781883    1.1176985   -8.2022904    6.2241021  -0.86048984 
 2110000   0.80574684 -0.089244235    -1.994325    1.1374831    -8.218234     6.223909  -0.85684186 
 2120000   0.79319528 -0.052506602   -1.9876304    1.1197639   -8.2077826    6.2201522  -0.86786651 
 2130000   0.79541877  -0.17519659   -1.9811333    1.1229029    -8.199846    6.2187127  -0.85823042 
 2140000   0.79904768   -0.1676169   -1.9757464    1.1280258   -8.1957417    6.2199953  -0.84772057 
 2150000   0.79891665 -0.054913858   -1.9928402    1.1278409   -8.2138514    6.2210112  -0.86499929 
 2160000   0.79679572  -0.12758283   -1.9891321    1.1248467    -8.207643    6.2185109  -0.86428534 
 2170000    0.8022789   -0.2355203    -1.996021    1.1325874   -8.2148677    6.2188467  -0.86343357 
 2180000   0.79424489  -0.16807381   -1.9838002    1.1212457   -8.2052149    6.2214147  -0.86255449 
 2190000    0.7926915 -0.049423089   -1.9800988    1.1190527   -8.1999353    6.2198365  -0.86104609 
 2200000   0.80177206  -0.15194813   -1.9853825    1.1318719   -8.2080798    6.2226973  -0.85351058 
 2210000   0.80669666 -0.070987362   -1.9879398     1.138824   -8.2095819     6.221642  -0.84911583 
 2220000   0.80174749  -0.13665386   -1.9710426    1.1318372   -8.1912771    6.2202346  -0.83920537 
 2230000   0.79579851  -0.16204409   -1.9803724    1.1234389   -8.2009849    6.2206125  -0.85693346 
 2240000   0.80194671 -0.088588015   -1.9779812    1.1321184   -8.1997647    6.2217834  -0.84586281 
 2250000   0.80741518 -0.043023543   -1.9829104    1.1398383   -8.2032626    6.2203522  -0.84307207 
 2260000   0.80412861  -0.11776273   -1.9849694    1.1351987   -8.2071613    6.2221919  -0.84977074 
 2270000   0.80204327  -0.20587861    -1.984775    1.1322547   -8.2070164    6.2222415  -0.85252023 
 2280000   0.80445424  -0.26156556   -1.9714644    1.1356584   -8.1912097    6.2197453  -0.83580602 
 2290000   0.80038782  -0.13560777   -1.9871793    1.1299177   -8.2114515    6.2242722  -0.85726157 
 2300000   0.80775086  -0.14272367    -1.972648    1.1403122   -8.1942955    6.2216475  -0.83233572 
 2310000    0.8026702  -0.17510337   -1.9929048    1.1331398    -8.211581    6.2186763  -0.85976496 
 2320000     0.798178  -0.14796395    -1.993979    1.1267981   -8.2151391    6.2211602  -0.86718085 
 2330000   0.79665371  -0.10792215   -1.9773076    1.1246462   -8.1954141    6.2181065  -0.85266138 
 2340000   0.80062892  -0.13910405   -1.9782138    1.1302581   -8.2013733    6.2231594  -0.84795572 
 2350000   0.80059926  -0.19431737   -1.9964473    1.1302162    -8.215811    6.2193637  -0.86623107 
 2360000   0.79193161  -0.13737398    -1.987301      1.11798   -8.2087832    6.2214822  -0.86932101 
 2370000   0.80091652   -0.1789905   -1.9730998    1.1306641   -8.1970006    6.2239008  -0.84243571 
 2380000   0.80159061 -0.096182726    -1.982959    1.1316157   -8.2004458    6.2174868  -0.85134327 
 2390000   0.79684037  -0.16994799   -1.9851457    1.1249097   -8.2040924    6.2189467  -0.86023596 
 2400000    0.8042532  -0.13887033   -1.9707721    1.1353745    -8.189876    6.2191039  -0.83539758 
 2410000    0.8024684   -0.1544611   -1.9839161    1.1328549    -8.203859    6.2199429  -0.85106114 
 2420000   0.80639121  -0.13659101   -1.9822764    1.1383928   -8.2032309    6.2209545  -0.84388362 
 2430000   0.79830126  -0.10038578   -1.9875253    1.1269721    -8.211691    6.2241657  -0.86055318 
 2440000   0.80377373  -0.13176808   -1.9897381    1.1346977   -8.2077191     6.217981  -0.85504041 
 2450000   0.80409408  -0.22032117   -1.9673432    1.1351499   -8.1902357    6.2228925  -0.83219326 
 2460000   0.80580162  -0.16761895   -1.9821355    1.1375605   -8.2002876    6.2181521  -0.84457502 
 2470000   0.80241132  -0.11392875   -1.9751471    1.1327743   -8.1935926    6.2184455  -0.84237278 
 2480000   0.80288958  -0.15243201   -1.9772808    1.1334495   -8.1988148    6.2215341   -0.8438313 
 2490000    0.7955702  -0.07659736   -1.9914606    1.1231166   -8.2139328    6.2224722  -0.86834395 
 2500000    0.8033523  -0.11811429   -1.9874151    1.1341027   -8.2053457    6.2179306  -0.85331239 
 2510000   0.80102173  -0.06462504   -1.9875963    1.1308126   -8.2055742     6.217978  -0.85678366 
 2520000    0.8034752  -0.11806783   -1.9909874    1.1342762   -8.2123417    6.2213543  -0.85671116 
 2530000   0.79904514  -0.10389892   -1.9826974    1.1280223    -8.205956    6.2232586  -0.85467514 
 2540000   0.80055674   -0.1027152   -1.9842445    1.1301562   -8.2036016    6.2193571   -0.8540883 
 2550000   0.80360338  -0.18965793   -1.9835987    1.1344572   -8.2020453    6.2184466  -0.84914155 
 2560000    0.7989746  -0.19437388   -1.9837893    1.1279227   -8.2038514    6.2200621  -0.85586664 
 2570000   0.80094207  -0.17672325   -1.9786238    1.1307002   -8.1946342    6.2160104  -0.84792362 
 2580000   0.80160582  -0.13305546   -1.9926213    1.1316372   -8.2134792    6.2208579  -0.86098406 
 2590000   0.79529994  -0.21793026   -1.9766732    1.1227351   -8.1997323    6.2230591  -0.85393813 
 2600000   0.79493823  -0.15391252   -1.9873566    1.1222245   -8.2090142    6.2216576   -0.8651321 
 2610000   0.79403175  -0.09493988   -1.9926465    1.1209448   -8.2134757    6.2208292  -0.87170168 
 2620000   0.79904688  -0.14910817   -1.9856259    1.1280247    -8.202992    6.2173661  -0.85760121 
 2630000   0.79714806  -0.21045378   -1.9843375    1.1253441     -8.20485    6.2205125  -0.85899339 
 2640000   0.79549914  -0.20390729   -1.9942848    1.1230163    -8.220465    6.2261802  -0.87126843 
 2650000   0.79842169 -0.073983087   -1.9915319    1.1271421   -8.2118227    6.2202908  -0.86438975 
 2660000   0.80320485  -0.15674752   -1.9889436    1.1338946   -8.2111674    6.2222238  -0.85504906 
 2670000   0.79943897  -0.18252896   -1.9809467    1.1285782   -8.2020063    6.2210595  -0.85236851 
 2680000   0.80392176  -0.14036128   -1.9914619    1.1349066   -8.2139135    6.2224516  -0.85655524 
 2690000   0.79652861  -0.14767121   -1.9870329    1.1244696   -8.2086434    6.2216105  -0.86256328 
 2700000   0.79924855  -0.11288912   -1.9785924    1.1283094   -8.1970173    6.2184248  -0.85028303 
 2710000   0.80098113  -0.13317718   -1.9803959    1.1307553   -8.2033222    6.2229264  -0.84964053 
 2720000   0.80124284  -0.15517794   -1.9714247    1.1311248    -8.191192    6.2197673  -0.84029988 
 2730000   0.79714549  -0.11140828   -1.9861546    1.1253405   -8.2042873    6.2181327  -0.86081416 
 2740000   0.80356767 -0.092207086   -1.9774819    1.1344068   -8.1963685    6.2188866  -0.84307514 
 2750000    0.7993183 -0.075090727   -1.9797994    1.1284079   -8.2052925     6.225493  -0.85139154 
 2760000     0.802912  -0.08705366   -1.9676543    1.1334811   -8.1904516    6.2227972  -0.83417319 
 2770000   0.80334994  -0.16435937   -1.9831776    1.1340994   -8.2036609    6.2204832  -0.84907823 
 2780000    0.7964055  -0.17583833   -1.9749205    1.1242958   -8.1931146    6.2181941  -0.85062467 
 2790000   0.79688772  -0.05121475   -1.9843723    1.1249766   -8.2085325    6.2241602  -0.85939567 
 2800000    0.7944998  -0.11283685   -1.9638782    1.1216055   -8.1831791     6.219301  -0.84227262 
 2810000    0.7966935  -0.20078147   -1.9733322    1.1247024   -8.1965177    6.2231855  -0.84862978 
 2820000   0.80224724  -0.15946995   -1.9738736    1.1325427   -8.1935223    6.2196487  -0.84133088 
 2830000    0.7988186  -0.17568329   -1.9758732    1.1277024   -8.1985531    6.2226799  -0.84817076 
 2840000   0.79493068  -0.16578195   -2.0051811    1.1222138   -8.2238048    6.2186236  -0.88296733 
 2850000   0.80491807  -0.16550734   -1.9769298    1.1363132   -8.1993603    6.2224305  -0.84061661 
 2860000   0.79990228  -0.17796512   -1.9890825    1.1292323   -8.2126965     6.223614  -0.85985017 
 2870000   0.79583499  -0.18078318   -1.9826695    1.1234904   -8.2049967    6.2223273    -0.859179 
 2880000   0.79738664  -0.16083119   -1.9836642    1.1256809   -8.2064472    6.2227829  -0.85798331 
 2890000   0.79816538  -0.10011501   -1.9886746    1.1267803   -8.2039827    6.2153081  -0.86189428 
 2900000   0.80028937  -0.14882558    -1.963625    1.1297788   -8.1851569    6.2215319  -0.83384622 
 2910000   0.79791737 -0.074506799    -1.984964    1.1264302   -8.2053359    6.2203718  -0.85853388 
 2920000   0.80087757  -0.19386817   -1.9667556    1.1306091   -8.1871165    6.2203609   -0.8361465 
 2930000   0.79709305  -0.14165716   -1.9811971    1.1252665   -8.2057943    6.2245972   -0.8559306 
 2940000   0.79672806   -0.1213029   -1.9800773    1.1247512   -8.2003134     6.220236  -0.85532613 
 2950000   0.80263523  -0.13685063   -1.9739627    1.1330904   -8.1991083    6.2251456  -0.84087226 
 2960000   0.79205753  -0.22861757   -1.9829246    1.1181578   -8.2044495     6.221525  -0.86476682 
 2970000   0.79463434   -0.1435318   -1.9837393    1.1217955   -8.2077111    6.2239719   -0.8619438 
 2980000    0.7993388 -0.088717004   -1.9795234    1.1284368   -8.1997033    6.2201799  -0.85108663 
 2990000   0.79762617  -0.11884405   -1.9765185    1.1260191   -8.1942833    6.2177648  -0.85049942 
 3000000   0.79789447  -0.19154744   -1.9796422    1.1263978   -8.2017481    6.2221059  -0.85324434 
 3010000   0.80128845  -0.13539231   -1.9846455    1.1311892   -8.2056213    6.2209757  -0.85345637 
 3020000   0.80066662  -0.16405706   -1.9811914    1.1303113   -8.2005928    6.2194014  -0.85088009 
 3030000   0.79972556  -0.15110254   -1.9886123    1.1289828    -8.206538    6.2179258  -0.85962947 
 3040000   0.80071631  -0.15328522   -1.9918939    1.1303815   -8.2113729    6.2194789  -0.86151248 
 3050000   0.80061337  -0.15866314   -1.9875284    1.1302361   -8.2086856    6.2211572  -0.85729228 
 3060000   0.80054695  -0.18146217   -1.9814668    1.1301424   -8.1983111    6.2168444  -0.85132437 
 3070000   0.79724165 -0.082316506   -1.9685878    1.1254762   -8.1911455    6.2225578  -0.84311152 
 3080000   0.79946943  -0.13938059   -1.9730838    1.1286212   -8.1935175    6.2204337  -0.84446258 
 3090000   0.79811405  -0.11798301    -1.976001    1.1267078   -8.1966353    6.2206344  -0.84929315 
 3100000   0.80202921  -0.18677447    -1.997671    1.1322349   -8.2163971     6.218726  -0.86543612 
 3110000   0.80194734  -0.11373099   -1.9801328    1.1321193   -8.2002931    6.2201603  -0.84801352 
 3120000   0.80640807 -0.081763247   -1.9903748    1.1384166   -8.2098852    6.2195104   -0.8519582 
 3130000   0.80146178  -0.10224198   -1.9874631    1.1314339   -8.2104292    6.2229661  -0.85602921 
 3140000   0.80814174  -0.14510899   -1.9819916     1.140864   -8.2022662    6.2202746   -0.8411276 
 3150000   0.80035634  -0.17557505   -1.9881772    1.1298733   -8.2054778    6.2173006  -0.85830391 
 3160000   0.79631723 -0.080925531   -1.9918964    1.1241712    -8.213865    6.2219686  -0.86772517 
 3170000   0.79520751  -0.10438043   -1.9820287    1.1226046   -8.2041898     6.222161  -0.85942409 
 3180000   0.79423527  -0.12611811   -1.9891084    1.1212321   -8.2134071    6.2242987  -0.86787631 
 3190000   0.79700197  -0.15627095   -1.9706438    1.1251379   -8.1919163    6.2212725  -0.84550591 
 3200000    0.7992929  -0.13684428    -1.982545     1.128372   -8.1991718    6.2166268  -0.85417296 
 3210000   0.79896382  -0.18709401   -1.9856035    1.1279075    -8.204199    6.2185955  -0.85769602 
 3220000   0.79934932  -0.08942527   -1.9819072    1.1284517   -8.2039881    6.2220808  -0.85345558 
 3230000   0.80151746  -0.11940999   -1.9955636    1.1315125   -8.2138145    6.2182509  -0.86405113 
 3240000   0.79792716  -0.13754252   -1.9972318     1.126444   -8.2149972    6.2177654  -0.87078778 
 3250000   0.80272737  -0.12271467   -1.9989761    1.1332205   -8.2209066    6.2219305  -0.86575561 
 3260000   0.79926929  -0.18694251   -1.9859527    1.1283387   -8.2058571    6.2199044  -0.85761405 
 3270000   0.79148999    -0.138913   -1.9764909    1.1173565   -8.1971542    6.2206632  -0.85913439 
 3280000   0.79867727  -0.13485399   -1.9852995    1.1275029   -8.2042269    6.2189274  -0.85779662 
 3290000   0.79894396  -0.15305123   -1.9724564    1.1278794   -8.1956069    6.2231505  -0.84457698 
 3300000   0.79907123  -0.17175966   -1.9949244    1.1280591   -8.2180379    6.2231135  -0.86686528 
 3310000   0.79770864  -0.19265338   -1.9902531    1.1261355    -8.211676     6.221423  -0.86411756 
 3320000   0.80219167  -0.24049988   -1.9963844    1.1324643   -8.2171518    6.2207674  -0.86392015 
 3330000   0.80160393  -0.21106931   -1.9920141    1.1316345   -8.2092949    6.2172808  -0.86037957 
 3340000   0.79804503  -0.15546336   -2.0013137    1.1266104   -8.2223054    6.2209917   -0.8747033 
 3350000   0.79971816  -0.22753097    -1.985485    1.1289724   -8.2058103    6.2203254  -0.85651262 
 3360000   0.79643382 -0.097786128   -1.9817257    1.1243358   -8.2029956    6.2212699  -0.85738987 
 3370000    0.8065216  -0.21477374   -1.9882858    1.1385769   -8.2098994    6.2216136  -0.84970894 
 3380000   0.80533816  -0.13340343   -1.9842288    1.1369062    -8.202521    6.2182922  -0.84732264 
 3390000   0.79855996  -0.10442856   -1.9828905    1.1273373   -8.2034097    6.2205192  -0.85555322 
 3400000   0.80010177  -0.13716303   -1.9920599    1.1295139    -8.211306    6.2192461  -0.86254598 
 3410000   0.80184676  -0.09879002   -1.9912539    1.1319773   -8.2119578    6.2207039  -0.85927658 
 3420000   0.80105466  -0.17044294   -1.9928354    1.1308591   -8.2099466    6.2171113  -0.86197624 
 3430000   0.79540925  -0.20396784   -1.9783088    1.1228894     -8.20034    6.2220312  -0.85541935 
 3440000   0.80200734  -0.12689883   -1.9899314     1.132204   -8.2089068    6.2189754  -0.85772738 
 3450000   0.79038456  -0.11041157   -1.9811881     1.115796   -8.2034183    6.2222303  -0.86539206 
 3460000   0.79804909  -0.18334277   -1.9839344    1.1266161   -8.2049643      6.22103  -0.85731826 
 3470000   0.80269291    -0.158298   -1.9829991    1.1331719   -8.2032627    6.2202636  -0.84982726 
 3480000   0.79538158  -0.10961044   -1.9776829    1.1228504   -8.1978329      6.22015  -0.85483255 
 3490000   0.80128254 -0.079429674   -1.9720174    1.1311808   -8.1924153     6.220398  -0.84083653 
 3500000   0.79725687  -0.16121712   -1.9720304    1.1254977   -8.1936806    6.2216502  -0.84653265 
 3510000   0.80414616 -0.0095790207   -1.9849534    1.1352234   -8.2085171    6.2235637  -0.84972996 
 3520000   0.80110172  -0.15807891   -1.9806761    1.1309256   -8.2012659    6.2205898  -0.84975052 
 3530000   0.79890063  -0.11599064    -1.991653    1.1278183   -8.2109981    6.2193451  -0.86383472 
 3540000   0.79669111  -0.20241796   -1.9913476     1.124699   -8.2096961    6.2183485  -0.86664856 
 3550000   0.80784235  -0.15512042   -1.9911546    1.1404414   -8.2124974    6.2213428   -0.8507132 
 3560000   0.80065071 -0.092710695   -1.9812654    1.1302889    -8.200199    6.2189336  -0.85097659 
 3570000   0.80123566  -0.13116575   -1.9946773    1.1311146   -8.2163187    6.2216414  -0.86356262 
 3580000    0.8010978  -0.10503665   -1.9862434      1.13092   -8.2063057    6.2200623  -0.85532343 
 3590000    0.8006813  -0.12594399   -1.9860974     1.130332    -8.212179    6.2260816  -0.85576532 
 3600000   0.80026776  -0.15793947   -1.9754265    1.1297482   -8.1983206    6.2228941  -0.84567826 
 3610000   0.79133164 -0.087197015   -1.9860441     1.117133   -8.2049914    6.2189472  -0.86891112 
 3620000   0.80235503  -0.16746443   -1.9760525    1.1326949   -8.1966397    6.2205872  -0.84335758 
 3630000   0.79695002  -0.22968794   -1.9954049    1.1250645   -8.2151109     6.219706  -0.87034038 
 3640000   0.79657859  -0.14887713   -1.9927958    1.1245402   -8.2098937    6.2170979  -0.86825562 
 3650000   0.79809463  -0.12092101   -1.9827565    1.1266804   -8.2008239    6.2180673  -0.85607614 
 3660000   0.79858705  -0.18327061   -1.9722049    1.1273756   -8.1936542    6.2214493  -0.84482934 
 3670000   0.79967664  -0.13699179    -1.987666    1.1289137   -8.2073187    6.2196526  -0.85875229 
 3680000   0.80248111  -0.18841135   -1.9798905    1.1328729   -8.2003245     6.220434  -0.84701763 
 3690000   0.80281554  -0.18608463   -1.9720477     1.133345   -8.1924028    6.2203551  -0.83870272 
 3700000   0.80250179  -0.11742229   -2.0043792    1.1329021   -8.2257782     6.221399  -0.87147716 
 3710000   0.80134025  -0.14387459   -1.9805923    1.1312623   -8.2014879    6.2208956  -0.84933001 
 3720000   0.80703701  -0.15269234    -1.994907    1.1393045   -8.2124238    6.2175168  -0.85560254 
 3730000   0.79969476 -0.085459521   -1.9832747    1.1289393   -8.2057457    6.2224709  -0.85433539 
 3740000   0.79622889   -0.1080234   -1.9960599    1.1240465   -8.2171826    6.2211227   -0.8720134 
 3750000   0.79789566  -0.10907979   -1.9963713    1.1263995   -8.2176136    6.2212423  -0.86997181 
 3760000   0.80199629  -0.21725924   -1.9762884    1.1321884   -8.1989361    6.2226476  -0.84410001 
 3770000   0.79654678  -0.10559843    -1.979999    1.1244953   -8.2015379    6.2215389  -0.85550368 
 3780000   0.79991291  -0.14053104   -1.9845889    1.1292473   -8.2064085    6.2218196  -0.85534159 
 3790000   0.79981895  -0.15536084    -1.981881    1.1291146   -8.2010224    6.2191414  -0.85276634 
 3800000   0.80065908   -0.1175113    -1.979375    1.1303007   -8.2014155    6.2220405  -0.84907431 
 3810000   0.79859648  -0.10396962   -1.9798466    1.1273889   -8.1994683    6.2196217  -0.85245773 
 3820000    0.8030403  -0.10251713   -1.9965576    1.1336623   -8.2136255    6.2170679  -0.86289537 
 3830000   0.80493745  -0.13075064   -1.9789014    1.1363405    -8.201207    6.2223057  -0.84256087 
 3840000   0.80958706 -0.082810716   -1.9861877    1.1429044   -8.2072685    6.2210808  -0.84328324 
 3850000   0.80397898  -0.19409407   -1.9875868    1.1349874   -8.2062938    6.2187071  -0.85259934 
 3860000   0.80554657 -0.099023555   -1.9931976    1.1372004   -8.2107561    6.2175586  -0.85599717 
 3870000   0.80197849  -0.15018699    -1.990338    1.1321633   -8.2136376    6.2232996  -0.85817467 
 3880000   0.80531149 -0.097010752    -1.973565    1.1368685   -8.1991485    6.2255835  -0.83669641 
 3890000   0.79491809  -0.14615472    -1.972266     1.122196    -8.190429     6.218163  -0.85006998 
 3900000   0.79746923  -0.14251335   -1.9785515    1.1257975   -8.1974492    6.2188977  -0.85275401 
 3910000   0.79392406  -0.19975371   -1.9807529    1.1207928   -8.2013587    6.2206058  -0.85996018 
 3920000   0.79674559  -0.16351791   -1.9900737     1.124776   -8.2107953    6.2207216  -0.86529776 
 3930000   0.79811863  -0.16897007    -1.991448    1.1267143   -8.2102161    6.2187681  -0.86473369 
 3940000   0.80107562   -0.1421681     -2.01022    1.1308887   -8.2302994    6.2200794   -0.8793313 
 3950000   0.80042587  -0.18997194   -1.9954298    1.1299715   -8.2167097      6.22128  -0.86545831 
 3960000   0.80267921  -0.21705083   -2.0124608    1.1331525   -8.2325544    6.2200936   -0.8793083 
 3970000   0.80406761 -0.097682548   -1.9809986    1.1351125   -8.2035377    6.2225391  -0.84588605 
 3980000   0.80504312  -0.12966132    -1.981311    1.1364897   -8.1998835    6.2185724  -0.84482136 
 3990000   0.79501531  -0.18320995    -1.973495    1.1223333   -8.1922174    6.2187223  -0.85116173 
 4000000   0.79404697 -0.098163169   -1.9945445    1.1209663    -8.214362    6.2198175  -0.87357826 
 4010000   0.80129902  -0.16292262   -1.9834686    1.1312041   -8.2045383    6.2210696  -0.85226457 
 4020000   0.80273989  -0.15435909   -1.9965187    1.1332382   -8.2165507     6.220032  -0.86328056 
 4030000   0.79776477  -0.16407238   -1.9866311    1.1262147   -8.2077441    6.2211131  -0.86041633 
 4040000   0.80018268  -0.11757194   -1.9746548    1.1296281   -8.1980208    6.2233659  -0.84502671 
 4050000   0.80045743  -0.15713326   -1.9950742     1.130016    -8.216068    6.2209938  -0.86505822 
 4060000    0.7977347 -0.087320095   -1.9856927    1.1261723   -8.2075712    6.2218785  -0.85952045 
 4070000   0.80132385  -0.20459458   -1.9721853    1.1312391   -8.1961244    6.2239391  -0.84094618 
 4080000   0.80886547 -0.087866702   -1.9803179    1.1418857   -8.1995583    6.2192403   -0.8384322 
 4090000   0.79492724  -0.16876265   -1.9854622     1.122209   -8.2020961    6.2166339  -0.86325328 
 4100000   0.80332584  -0.10529279   -1.9825441    1.1340654   -8.2043847    6.2218406  -0.84847873 
 4110000   0.79815887  -0.16188542   -1.9760624    1.1267711    -8.198731    6.2226686  -0.84929126 
 4120000   0.81009458  -0.15404619   -1.9933861    1.1436209   -8.2149076    6.2215215  -0.84976521 
 4130000   0.79951254 -0.084441336   -1.9894655    1.1286821   -8.2088645     6.219399  -0.86078345 
 4140000    0.7955003   -0.1763692   -1.9786044     1.123018    -8.198182    6.2195776  -0.85558645 
 4150000   0.80193111  -0.15196701   -1.9874723    1.1320964    -8.207356    6.2198837  -0.85537587 
 4160000   0.80302683 -0.052297545   -1.9836171    1.1336433    -8.205953     6.222336  -0.84997381 
 4170000   0.80258826  -0.20134037   -1.9967205    1.1330241   -8.2171047    6.2203842  -0.86369637 
 4180000   0.79586783  -0.10378886   -1.9797332    1.1235368   -8.2021677    6.2224345  -0.85619635 
 4190000   0.80003799 -0.036474238   -1.9920675    1.1294239   -8.2145165     6.222449  -0.86264361 
 4200000   0.79683978  -0.23862306   -1.9828772    1.1249089   -8.2030014    6.2201242  -0.85796833 
 4210000   0.79612592  -0.17034861   -1.9883143    1.1239011   -8.2079459    6.2196316  -0.86441313 
 4220000   0.79452636  -0.24527597   -1.9903192     1.121643   -8.2100679    6.2197487  -0.86867612 
 4230000   0.79790086  -0.13159525   -1.9769964    1.1264069   -8.1969368    6.2199405  -0.85058949 
 4240000   0.80903715  -0.15686007   -1.9779681    1.1421281   -8.1970277    6.2190597  -0.83583998 
 4250000   0.78878072  -0.13172283     -1.99184    1.1135318   -8.2148096    6.2229697  -0.87830813 
 4260000   0.79963457   -0.1062457   -1.9774432    1.1288544    -8.199686    6.2222428  -0.84858881 
 4270000   0.80316824  -0.14733678   -1.9922412    1.1338429   -8.2131773    6.2209361   -0.8583983 
 4280000   0.79957602  -0.16962372   -1.9867693    1.1287717   -8.2050085    6.2182392  -0.85799757 
 4290000   0.80579963  -0.10144338   -1.9818211    1.1375576   -8.2035475    6.2217264  -0.84426341 
 4300000   0.80054024  -0.15964894   -1.9714421    1.1301329   -8.1920602    6.2206181   -0.8413092 
 4310000   0.79983399  -0.14840803    -1.994568    1.1291359   -8.2160846    6.2215166  -0.86543214 
 4320000   0.79841303   -0.1734205   -1.9888338    1.1271299   -8.2088096    6.2199757  -0.86170395 
 4330000    0.8012295 -0.080335724   -1.9750555    1.1311059   -8.1940099    6.2189545  -0.84394954 
 4340000   0.80255169  -0.12476203    -1.996097    1.1329725   -8.2157664    6.2196694  -0.86312446 
 4350000   0.80270266 -0.044158835   -1.9899494    1.1331856   -8.2094224    6.2194729  -0.85676379 
 4360000   0.80581443 -0.094823187   -1.9820122    1.1375785   -8.2030575    6.2210453  -0.84443366 
 4370000   0.79326703  -0.18082597   -1.9875141    1.1198652   -8.2068137    6.2192997  -0.86764884 
 4380000   0.79292818  -0.27435105   -1.9766197    1.1193869    -8.199238    6.2226182  -0.85723286 
 4390000   0.80412934   -0.1328026   -1.9801007    1.1351997   -8.2019521    6.2218513  -0.84490107 
 4400000   0.80236201 -0.045848816   -1.9702463    1.1327047   -8.1922046    6.2219584  -0.83754156 
 4410000   0.79812952 -0.050299254    -1.986707    1.1267297   -8.2097668    6.2230598  -0.85997735 
 4420000   0.79524195  -0.13807533   -1.9868024    1.1226532   -8.2076147    6.2208123   -0.8641492 
 4430000    0.8001865  -0.13422368   -1.9787924    1.1296335   -8.1961739    6.2173815  -0.84915887 
 4440000   0.79997393 -0.091850242   -1.9859339    1.1293334   -8.2114803    6.2255465  -0.85660045 
 4450000   0.80730908  -0.16692473   -1.9904534    1.1396886   -8.2080371    6.2175838   -0.8507648 
 4460000    0.8021581 -0.073072468   -1.9995803    1.1324169   -8.2177982    6.2182179  -0.86716345 
 4470000   0.79912072  -0.25853515   -1.9754725     1.128129   -8.1958922    6.2204197  -0.84734352 
 4480000     0.801049  -0.14383132   -1.9818673    1.1308511   -8.2051901    6.2233227  -0.85101622 
 4490000   0.80430043  -0.19634592   -1.9786162    1.1354412   -8.1967279    6.2181116  -0.84317502 
 4500000   0.79651209  -0.12508347   -1.9883811    1.1244463   -8.2051339    6.2167528  -0.86393477 
 4510000   0.79989981  -0.10600082   -1.9869756    1.1292288   -8.2089561    6.2219805  -0.85774683 
 4520000   0.79498813  -0.13201913   -1.9782073    1.1222949   -8.1976506    6.2194432   -0.8559124 
 4530000   0.79889085  -0.17184076   -1.9963309    1.1278044   -8.2160433    6.2197124  -0.86852647 
 4540000   0.79610589  -0.13587594   -1.9878261    1.1238729   -8.2085738    6.2207477  -0.86395324 
 4550000   0.79597618   -0.1031735    -2.002449    1.1236898   -8.2246089    6.2221599  -0.87875918 
 4560000   0.80236589 -0.084179896    -1.995703    1.1327102   -8.2161624    6.2204595  -0.86299276 
 4570000    0.7947929  -0.21261076   -1.9731615    1.1220193   -8.1955703    6.2224089  -0.85114217 
 4580000   0.80248076   -0.1864447   -1.9898442    1.1328724   -8.2074675    6.2176234   -0.8569718 
 4590000   0.79831618  -0.19642026   -1.9909339    1.1269932    -8.212229    6.2212952  -0.86394072 
 4600000   0.80292901  -0.14282914   -1.9862481    1.1335052   -8.2059152    6.2196671   -0.8527429 
 4610000   0.79787418  -0.14938723   -1.9821401    1.1263692   -8.2045855    6.2224454   -0.8557709 
 4620000   0.79449115   -0.1736092   -1.9956931    1.1215933   -8.2194197    6.2237265   -0.8740998 
 4630000   0.79550379  -0.17149767   -1.9778926    1.1230229   -8.1990372    6.2211446  -0.85486971 
 4640000   0.80579691   -0.1721823   -1.9837488    1.1375538   -8.2037836    6.2200349  -0.84619495 
 4650000   0.79707272  -0.11447047   -1.9833154    1.1252378   -8.2052664     6.221951  -0.85807765 
 4660000   0.79828432  -0.14094081   -1.9984533    1.1269482   -8.2174051    6.2189518  -0.87150508 
 4670000   0.79811406  -0.15956843   -1.9833279    1.1267078   -8.2048449    6.2215169  -0.85662011 
 4680000   0.79726019  -0.12195033   -1.9810779    1.1255024    -8.203333    6.2222551  -0.85557547 
 4690000    0.7932014  -0.13778876   -1.9866076    1.1197726   -8.2097419    6.2231343  -0.86683501 
 4700000   0.79633938   -0.1698417   -1.9787093    1.1242025     -8.19808    6.2193707  -0.85450679 
 4710000   0.79851844  -0.12755427   -1.9842331    1.1272787   -8.2056491     6.221416  -0.85695435 
 4720000   0.79865201  -0.11576113   -1.9723129    1.1274673   -8.1931893    6.2208764  -0.84484562 
 4730000   0.80082596  -0.07031037   -1.9855195    1.1305363   -8.2071486    6.2216291  -0.85498321 
 4740000   0.79338664 -0.028334819   -1.9864707    1.1200341   -8.2095431    6.2230723  -0.86643667 
 4750000   0.80157538  -0.11404644   -1.9998241    1.1315942    -8.220047    6.2202229  -0.86822985 
 4760000   0.79758191  -0.11957553   -2.0001601    1.1259566   -8.2213435    6.2211833  -0.87420352 
 4770000   0.79928157 -0.057386086   -1.9958279     1.128356   -8.2155495    6.2197216  -0.86747189 
 4780000   0.79852377 -0.059873842   -1.9826573    1.1272862   -8.2027107    6.2200534  -0.85537104 
 4790000   0.79595908  -0.10534123   -1.9821251    1.1236656   -8.2005393    6.2184143  -0.85845944 
 4800000   0.80379228  -0.10995312   -1.9969887    1.1347239   -8.2154487      6.21846  -0.86226484 
 4810000   0.79836883 -0.054718541   -1.9847782    1.1270675   -8.2029253    6.2181471  -0.85771068 
 4820000   0.80080909  -0.11351996   -1.9885312    1.1305125   -8.2103659    6.2218347  -0.85801879 
 4830000   0.79368171  -0.16090551   -1.9901805    1.1204506   -8.2131218    6.2229413  -0.86972982 
 4840000    0.8103327  -0.11030536   -1.9995886     1.143957   -8.2198744    6.2202858  -0.85563155 
 4850000   0.79702729  -0.16936844   -1.9918054    1.1251736   -8.2122637    6.2204583  -0.86663181 
 4860000   0.79998647  -0.20229616   -1.9809823    1.1293511   -8.1994364    6.2184541  -0.85163111 
 4870000   0.79737291  -0.14020375   -1.9880089    1.1256615   -8.2082333    6.2202244  -0.86234735 
 4880000   0.79958526  -0.13560425   -1.9917337    1.1287847   -8.2127065    6.2209728    -0.862949 
 4890000   0.80266908  -0.13272741   -1.9927419    1.1331382   -8.2113827    6.2186408  -0.85960365 
 4900000   0.79252107  -0.20987323   -1.9817435    1.1188121   -8.2003801    6.2186367  -0.86293132 
 4910000   0.80208957  -0.15706457   -1.9843998    1.1323201   -8.2017795    6.2173798  -0.85207966 
 4920000   0.80747204  -0.13496808   -2.0002072    1.1399186    -8.220499    6.2202918  -0.86028861 
 4930000   0.79903359 -0.048016913   -1.9793177     1.128006   -8.2024535    6.2231358  -0.85131171 
 4940000   0.79958412  -0.12382684   -2.0060583    1.1287831   -8.2242664     6.218208   -0.8772752 
 4950000    0.8004824  -0.10703844   -2.0080568    1.1300513   -8.2284184    6.2203617   -0.8780055 
 4960000   0.80311303  -0.15799914    -1.995275    1.1337649   -8.2144994    6.2192244  -0.86151006 
 4970000   0.80732062 -0.097563234   -1.9699597    1.1397048   -8.1911734    6.2212137  -0.83025488 
 4980000     0.796808  -0.15340898   -1.9838779    1.1248641   -8.2084617    6.2245838  -0.85901386 
 4990000   0.80257079 -0.087791882   -1.9952519    1.1329995   -8.2127767    6.2175247  -0.86225249 
 5000000   0.79655068  -0.16054548   -2.0040121    1.1245008   -8.2235802    6.2195681  -0.87951127 
 5010000   0.80425839  -0.11560988   -1.9974677    1.1353819   -8.2158665    6.2183988   -0.8620858 
 5020000   0.79613694   -0.1252914   -2.0088617    1.1239167   -8.2308654    6.2220037  -0.88494501 
 5030000   0.79699936  -0.17566008   -1.9882082    1.1251342   -8.2097004    6.2214922    -0.863074 
 5040000   0.79895547  -0.20075072   -1.9948232    1.1278957   -8.2155581    6.2207349  -0.86692748 
 5050000   0.79923126 -0.087652938   -2.0034735     1.128285    -8.220285    6.2168114  -0.87518853 
 5060000   0.79742311  -0.12640408   -2.0068376    1.1257324   -8.2260298    6.2191923  -0.88110516 
 5070000   0.79336621  -0.12901714   -1.9826521    1.1200052   -8.2043224    6.2216703  -0.86264683 
 5080000    0.8022351  -0.11174214   -1.9965851    1.1325256   -8.2193038    6.2227187  -0.86405954 
 5090000   0.80356179  -0.16007959   -1.9932302    1.1343985   -8.2153032     6.222073  -0.85883178 
 5100000   0.80286461  -0.12959801   -2.0016473    1.1334143   -8.2171022    6.2154549  -0.86823303 
 5110000   0.80087829 -0.096640565   -1.9928181    1.1306101    -8.213108    6.2202898  -0.86220802 
 5120000   0.79805391  -0.18012211   -1.9973834    1.1266229   -8.2157901    6.2184067  -0.87076052 
 5130000   0.79967093 -0.094803305   -1.9878846    1.1289057   -8.2064622    6.2185776  -0.85897888 
 5140000   0.80154238  -0.13932406   -2.0022069    1.1315476   -8.2248847    6.2226778  -0.87065929 
 5150000   0.79744445 -0.086286852    -2.003999    1.1257625   -8.2237472    6.2197482  -0.87823651 
 5160000   0.79860407  -0.15334062   -1.9926483    1.1273996   -8.2142094    6.2215611  -0.86524868 
 5170000   0.79433137  -0.10048133   -1.9949538    1.1213678   -8.2149951    6.2200413  -0.87358604 
 5180000   0.79989881  -0.17055948   -1.9985232    1.1292274   -8.2170898    6.2185666  -0.86929578 
 5190000   0.79910712 -0.086363903   -1.9936984    1.1281098   -8.2142936    6.2205952  -0.86558866 
 5200000   0.79574378 -0.056858778   -1.9814584    1.1233617   -8.2004801    6.2190217  -0.85809673 
 5210000   0.79478281 -0.072512774   -1.9879285    1.1220051   -8.2096037    6.2216753  -0.86592341 
 5220000   0.80000377  -0.15856586   -1.9958379    1.1293756    -8.214606    6.2187681   -0.8664623 
 5230000   0.80385813 -0.089008519   -1.9898413    1.1348168   -8.2110165    6.2211752  -0.85502445 
 5240000   0.80329972  -0.11395559   -1.9890314    1.1340285    -8.209775    6.2207436  -0.85500294 
 5250000   0.80043146  -0.11588708   -1.9753055    1.1299793   -8.1972544    6.2219488  -0.84532618 
 5260000   0.80487916 -0.090110135   -1.9859081    1.1362582   -8.2090557    6.2231476  -0.84964993 
 5270000   0.79655981  -0.13418364   -1.9853781    1.1245137    -8.204592    6.2192139  -0.86086444 
 5280000   0.79029889  -0.15246063   -1.9892343    1.1156751   -8.2085304    6.2192961   -0.8735592 
 5290000   0.80211858  -0.20528199   -2.0059915    1.1323611   -8.2232526    6.2172611  -0.87363043 
 5300000   0.79552877 -0.089111668   -1.9895681    1.1230582   -8.2112509    6.2216828   -0.8665099 
 5310000   0.79936838 -0.083945182   -1.9891817    1.1284786   -8.2111773    6.2219955  -0.86070318 
 5320000    0.8041014  -0.18813894   -1.9876597    1.1351602   -8.2094026    6.2217429  -0.85249947 
 5330000   0.79728249  -0.26805383   -2.0068814    1.1255339   -8.2229829    6.2161016  -0.88134746 
 5340000   0.80399214 -0.066809498   -1.9893295     1.135006   -8.2106032    6.2212736  -0.85432355 
 5350000   0.79767911  -0.18529826    -1.985117    1.1260938   -8.2036455    6.2185285  -0.85902315 
 5360000   0.80381847  -0.28272626   -1.9798301    1.1347608   -8.2000942    6.2202641  -0.84506929 
 5370000   0.79795182  -0.18430212   -1.9869066    1.1264788   -8.2050163    6.2181096  -0.86042785 
 5380000   0.80262431 -0.086050215    -1.992353     1.133075   -8.2140287    6.2216757  -0.85927797 
 5390000   0.81050295  -0.10647675   -1.9898349    1.1441974   -8.2118117    6.2219768   -0.8456375 
 5400000   0.79791737 -0.069358291   -2.0058844    1.1264302   -8.2261473    6.2202628  -0.87945425 
 5410000   0.79665809  -0.17937359   -1.9811984    1.1246524   -8.2042085    6.2230101  -0.85654597 
 5420000   0.80159195  -0.10511831   -1.9902782    1.1316176   -8.2104796    6.2202014  -0.85866064 
 5430000   0.80385591 -0.082410228   -1.9973771    1.1348137   -8.2201811     6.222804  -0.86256345 
 5440000   0.79299202 -0.073827846   -1.9803518     1.119477    -8.206642    6.2262902  -0.86087485 
 5450000   0.80246831  -0.13989369    -1.981436    1.1328548   -8.2029217    6.2214857  -0.84858123 
 5460000   0.79996693  -0.10396734   -1.9924614    1.1293236   -8.2149169    6.2224556   -0.8631378 
 5470000   0.80183467  -0.11300194   -1.9754886    1.1319603   -8.1982268    6.2227382  -0.84352833 
 5480000   0.80069515   -0.1781484   -1.9946233    1.1303516   -8.2155817    6.2209585   -0.8642717 
 5490000   0.79561911 -0.047965172   -1.9850879    1.1231857    -8.205498    6.2204101  -0.86190225 
 5500000   0.80690269  -0.12669646   -1.9828125    1.1391149   -8.2059774    6.2231649  -0.84369767 
 5510000   0.79666309 -0.083389178   -1.9771032    1.1246595   -8.1975309    6.2204277  -0.85244374 
 5520000   0.79984454  -0.14172903   -1.9790818    1.1291508   -8.2024053    6.2233236  -0.84993098 
 5530000   0.79800404 -0.066750716   -1.9944868    1.1265525   -8.2166082    6.2221214  -0.86793426 
 5540000    0.7999705  -0.23361582   -1.9927317    1.1293286   -8.2125169    6.2197853  -0.86340307 
 5550000   0.80462781 -0.096229683   -2.0005684    1.1359034   -8.2208062    6.2202378  -0.86466504 
 5560000   0.79688409  -0.18672074   -1.9949457    1.1249715   -8.2133667     6.218421  -0.86997423 
 5570000   0.79871711  -0.13526201   -2.0017969    1.1275592    -8.222411     6.220614  -0.87423775 
 5580000   0.79444815  -0.19628912    -1.989552    1.1215326   -8.2087257    6.2191737  -0.86801941 
 5590000   0.80078725  -0.10609848   -1.9965862    1.1304816   -8.2199991    6.2234129  -0.86610463 
 5600000   0.80460388  -0.13898367   -1.9713276    1.1358696   -8.1937621    6.2224344  -0.83545804 
 5610000   0.80043339 -0.057880285   -1.9837224    1.1299821   -8.2010569    6.2173345  -0.85374035 
 5620000   0.80315207  -0.12926488   -2.0040544    1.1338201   -8.2243107    6.2202563  -0.87023435 
 5630000   0.81084314  -0.14405204   -1.9786992    1.1446776   -8.1972231    6.2185239  -0.83402161 
 5640000   0.78616374 -0.092230765   -1.9875908    1.1098374   -8.2059734    6.2183826  -0.87775338 
 5650000   0.79210113   -0.1494675   -2.0031977    1.1182193   -8.2223632    6.2191654  -0.88497844 
 5660000   0.79762499   -0.1211825   -1.9947782    1.1260174   -8.2152417    6.2204635  -0.86876081 
 5670000   0.80066206  -0.11645271   -1.9824517    1.1303049   -8.2045452    6.2220934  -0.85214684 
 5680000   0.80012791  -0.09281718   -1.9814006    1.1295508   -8.2020171    6.2206164  -0.85184982 
 5690000   0.79964213  -0.10663132   -2.0074604     1.128865   -8.2231713    6.2157109  -0.87859535 
 5700000   0.79823543  -0.12355909   -1.9837595    1.1268792   -8.2050366    6.2212771   -0.8568803 
 5710000    0.7995595  -0.14906576   -1.9876886    1.1287484   -8.2099518    6.2222633   -0.8589402 
 5720000   0.79884485  -0.10195412   -1.9907123    1.1277395   -8.2131553    6.2224431  -0.86297276 
 5730000   0.79957979  -0.17902637   -1.9880142     1.128777    -8.207583    6.2195688  -0.85923714 
 5740000   0.80599779  -0.15744786    -1.983956    1.1378374   -8.2052046    6.2212485  -0.84611864 
 5750000   0.80366236  -0.21966347   -1.9756853    1.1345404   -8.1971288    6.2214435  -0.84114484 
 5760000    0.8024722 -0.074985568   -1.9941145    1.1328603   -8.2093292    6.2152146  -0.86125426 
 5770000   0.80291723  -0.12631258   -1.9904463    1.1334885   -8.2121471    6.2217008  -0.85695778 
 5780000   0.79061684 -0.048158838    -1.991261    1.1161239   -8.2137076    6.2224466  -0.87513704 
 5790000   0.80636071  -0.11296285   -1.9905849    1.1383497   -8.2102202    6.2196353  -0.85223513 
 5800000   0.79384779 -0.022416356   -1.9727157    1.1206851   -8.1927829    6.2200672  -0.85203058 
 5810000   0.80495729  -0.16603651   -2.0080833    1.1363685   -8.2296706    6.2215873  -0.87171478 
 5820000   0.80472341  -0.10668573   -2.0023164    1.1360383   -8.2244159    6.2220995  -0.86627804 
 5830000   0.80064102  -0.12681543   -1.9919472    1.1302752   -8.2135068    6.2215596  -0.86167201 
 5840000   0.80251204  -0.14413524   -1.9980881    1.1329165   -8.2191074    6.2210193  -0.86517155 
 5850000   0.79618258  -0.10182774   -1.9791575    1.1239811   -8.1999266    6.2207691  -0.85517633 
 5860000   0.80164631  -0.10983023   -2.0067236    1.1316944   -8.2260611    6.2193374  -0.87502927 
 5870000   0.79978157  -0.16892995   -2.0056846    1.1290619   -8.2225931    6.2169085  -0.87662273 
 5880000    0.7976502  -0.11791041   -1.9882603     1.126053   -8.2051853     6.216925  -0.86220726 
 5890000    0.8064154  -0.11089797   -1.9805902    1.1384269   -8.2011648    6.2205747  -0.84216322 
 5900000    0.7972067  -0.20779679   -1.9856217    1.1254269   -8.2021821    6.2165604  -0.86019482 
 5910000   0.80112348  -0.11864116   -1.9780255    1.1309563   -8.2011498    6.2231242  -0.84706927 
 5920000   0.80059033  -0.14288973   -1.9778669    1.1302036   -8.2022036    6.2243368  -0.84766325 
 5930000   0.80078149  -0.14889596   -1.9809713    1.1304735   -8.2031241    6.2221528  -0.85049779 
 5940000   0.80308416   -0.1534349   -1.9925655    1.1337242   -8.2137257    6.2211602  -0.85884133 
 5950000   0.80515164  -0.13485138   -1.9876351    1.1366429   -8.2116254    6.2239902  -0.85099224 
 5960000    0.8008064  -0.13199807   -1.9795639    1.1305086   -8.2024617    6.2228978  -0.84905527 
 5970000   0.80228706  -0.11830111   -1.9894869    1.1325989   -8.2112541    6.2217672  -0.85688797 
 5980000   0.79767806  -0.17924021   -1.9945596    1.1260923   -8.2116598    6.2171002  -0.86846725 
 5990000   0.80190869  -0.18112927   -1.9840377    1.1320648   -8.2035841    6.2195464  -0.85197294 
 6000000   0.80468381  -0.17269787   -1.9783444    1.1359824   -8.2001543    6.2218099  -0.84236199 
Loop time of 93678.8 on 216 procs for 6000000 steps with 28900 atoms

Performance: 27669.008 tau/day, 64.049 timesteps/s
99.7% CPU use with 216 MPI tasks x 1 OpenMP threads

MPI task timing breakdown:
Section |  min time  |  avg time  |  max time  |%varavg| %total
---------------------------------------------------------------
Pair    | 1146       | 1453.4     | 1889.5     | 403.1 |  1.55
Bond    | 16.501     | 19.954     | 23.469     |  32.1 |  0.02
Kspace  | 84970      | 85431      | 85786      |  56.7 | 91.20
Neigh   | 1008.3     | 1038.5     | 1073.2     |  45.8 |  1.11
Comm    | 1393.6     | 1648       | 1898.3     | 294.8 |  1.76
Output  | 3.1101     | 3.1597     | 3.1699     |   0.4 |  0.00
Modify  | 3360.6     | 3535.8     | 3697.2     | 129.5 |  3.77
Other   |            | 548.8      |            |       |  0.59

Nlocal:    133.796 ave 265 max 7 min
Histogram: 7 1 0 12 121 48 14 7 5 1
Nghost:    974.713 ave 1287 max 395 min
Histogram: 4 4 0 5 19 15 85 58 18 8
Neighs:    5212.18 ave 16072 max 71 min
Histogram: 8 10 105 61 11 9 6 3 2 1

Total # of neighbors = 1125831
Ave neighs/atom = 38.9561
Ave special neighs/atom = 0.602076
Neighbor list builds = 805380
Dangerous builds = 0
System init for write_restart ...
PPPM initialization ...
  using 12-bit tables for long-range coulomb (src/kspace.cpp:332)
  G vector (1/distance) = 1.23006
  grid = 120 120 120
  stencil order = 5
  estimated absolute RMS force accuracy = 9.12113e-05
  estimated relative force accuracy = 9.12113e-05
  using double precision FFTW3
  3d grid and FFT values/proc = 19683 8400
WARNING: Neighbor exclusions used with KSpace solver may give inconsistent Coulombic energies (src/neighbor.cpp:486)
Neighbor list info ...
  update every 1 steps, delay 0 steps, check yes
  max neighbors/atom: 2000, page size: 100000
  master list distance cutoff = 2.8
  ghost atom cutoff = 2.8
  binsize = 1.4, bins = 24 24 24
  7 neighbor lists, perpetual/occasional/extra = 2 5 0
  (1) pair lj/cut, perpetual
      attributes: half, newton on
      pair build: half/bin/newton
      stencil: half/bin/3d/newton
      bin: standard
  (2) pair coul/long, perpetual, skip from (1)
      attributes: half, newton on
      pair build: skip
      stencil: none
      bin: none
  (3) compute rdf, occasional, copy from (1)
      attributes: half, newton on
      pair build: copy
      stencil: none
      bin: none
  (4) compute rdf, occasional, copy from (1)
      attributes: half, newton on
      pair build: copy
      stencil: none
      bin: none
  (5) compute rdf, occasional, copy from (1)
      attributes: half, newton on
      pair build: copy
      stencil: none
      bin: none
  (6) compute rdf, occasional, copy from (1)
      attributes: half, newton on
      pair build: copy
      stencil: none
      bin: none
  (7) compute rdf, occasional, copy from (1)
      attributes: half, newton on
      pair build: copy
      stencil: none
      bin: none
PPPM initialization ...
  using 12-bit tables for long-range coulomb (src/kspace.cpp:332)
  G vector (1/distance) = 1.23006
  grid = 120 120 120
  stencil order = 5
  estimated absolute RMS force accuracy = 9.12113e-05
  estimated relative force accuracy = 9.12113e-05
  using double precision FFTW3
  3d grid and FFT values/proc = 19683 8400
WARNING: Neighbor exclusions used with KSpace solver may give inconsistent Coulombic energies (src/neighbor.cpp:486)
Neighbor list info ...
  update every 1 steps, delay 0 steps, check yes
  max neighbors/atom: 2000, page size: 100000
  master list distance cutoff = 2.8
  ghost atom cutoff = 2.8
  binsize = 1.4, bins = 24 24 24
  7 neighbor lists, perpetual/occasional/extra = 2 5 0
  (1) pair lj/cut, perpetual
      attributes: half, newton on
      pair build: half/bin/newton
      stencil: half/bin/3d/newton
      bin: standard
  (2) pair coul/long, perpetual, skip from (1)
      attributes: half, newton on
      pair build: skip
      stencil: none
      bin: none
  (3) compute rdf, occasional, copy from (1)
      attributes: half, newton on
      pair build: copy
      stencil: none
      bin: none
  (4) compute rdf, occasional, copy from (1)
      attributes: half, newton on
      pair build: copy
      stencil: none
      bin: none
  (5) compute rdf, occasional, copy from (1)
      attributes: half, newton on
      pair build: copy
      stencil: none
      bin: none
  (6) compute rdf, occasional, copy from (1)
      attributes: half, newton on
      pair build: copy
      stencil: none
      bin: none
  (7) compute rdf, occasional, copy from (1)
      attributes: half, newton on
      pair build: copy
      stencil: none
      bin: none
Setting up Verlet run ...
  Unit style    : lj
  Current step  : 6000000
  Time step     : 0.005
Per MPI rank memory allocation (min/avg/max) = 17.65 | 20.05 | 20.64 Mbytes
Step Lx Ly Lz Press Pxx Pyy Pzz PotEng Temp 
 6000000    32.834682    32.834682    32.834682   0.21225415    0.9544879  -0.26534936 -0.052376108   -1.9783444   0.80468381 
 6000010    33.491376     32.51118     32.51118 -0.034489341   -1.5183985   0.71998322    0.6949473   -1.9621588   0.81671406 
 6000020    34.148069    32.197055    32.197055  0.069336223   -1.7078217   0.92676042   0.98906999   -1.9225653   0.83039622 
 6000030    34.804763    31.891862    31.891862   0.20511662   -1.7532162    1.1960638    1.1725022   -1.8977216   0.85788285 
 6000040    35.461457    31.595188    31.595188   0.36204055   -1.5733651    1.3719186    1.2875681   -1.8710266   0.88455785 
 6000050     36.11815    31.306641    31.306641    0.5216476   -1.4062561     1.494003    1.4771959   -1.8400356   0.90407725 
 6000060    36.774844    31.025858    31.025858   0.57566638   -1.2830031    1.5299215    1.4800807   -1.8193667   0.92884297 
 6000070    37.431538    30.752497    30.752497   0.69416202   -1.1417432    1.5457777    1.6784515   -1.7863334   0.94294816 
 6000080    38.088231    30.486237    30.486237   0.72203634   -1.1458899    1.6623778    1.6496212   -1.7592785    0.9608907 
 6000090    38.744925    30.226775    30.226775   0.89130733  -0.92028461     1.882023    1.7121836   -1.7482725   0.98765949 
 6000100    39.401618    29.973827    29.973827   0.87063334   -0.8632149    1.7884678    1.6866471   -1.7269564    1.0039914 
Loop time of 1.9649 on 216 procs for 100 steps with 28900 atoms

Performance: 21985.815 tau/day, 50.893 timesteps/s
99.8% CPU use with 216 MPI tasks x 1 OpenMP threads

MPI task timing breakdown:
Section |  min time  |  avg time  |  max time  |%varavg| %total
---------------------------------------------------------------
Pair    | 0.0010273  | 0.02356    | 0.078508   |   7.5 |  1.20
Bond    | 5.1022e-05 | 0.00025199 | 0.00057173 |   0.0 |  0.01
Kspace  | 1.3457     | 1.3908     | 1.4142     |   1.0 | 70.78
Neigh   | 0.058799   | 0.061985   | 0.06565    |   0.5 |  3.15
Comm    | 0.03423    | 0.045041   | 0.062304   |   3.2 |  2.29
Output  | 0.006567   | 0.017879   | 0.023496   |   1.6 |  0.91
Modify  | 0.21826    | 0.26322    | 0.34633    |   3.9 | 13.40
Other   |            | 0.1621     |            |       |  8.25

Nlocal:    133.796 ave 277 max 11 min
Histogram: 8 0 3 12 148 23 13 3 5 1
Nghost:    979.412 ave 1283 max 405 min
Histogram: 4 4 1 4 16 20 79 60 21 7
Neighs:    5220.62 ave 16658 max 81 min
Histogram: 8 10 120 51 7 10 4 5 0 1

Total # of neighbors = 1127655
Ave neighs/atom = 39.0192
Ave special neighs/atom = 0.602076
Neighbor list builds = 49
Dangerous builds = 0
PPPM initialization ...
  using 12-bit tables for long-range coulomb (src/kspace.cpp:332)
  G vector (1/distance) = 1.21848
  grid = 128 108 108
  stencil order = 5
  estimated absolute RMS force accuracy = 0.00011249
  estimated relative force accuracy = 0.00011249
  using double precision FFTW3
  3d grid and FFT values/proc = 16875 7128
WARNING: Neighbor exclusions used with KSpace solver may give inconsistent Coulombic energies (src/neighbor.cpp:486)
Neighbor list info ...
  update every 1 steps, delay 0 steps, check yes
  max neighbors/atom: 2000, page size: 100000
  master list distance cutoff = 2.8
  ghost atom cutoff = 2.8
  binsize = 1.4, bins = 29 22 22
  7 neighbor lists, perpetual/occasional/extra = 2 5 0
  (1) pair lj/cut, perpetual
      attributes: half, newton on
      pair build: half/bin/newton
      stencil: half/bin/3d/newton
      bin: standard
  (2) pair coul/long, perpetual, skip from (1)
      attributes: half, newton on
      pair build: skip
      stencil: none
      bin: none
  (3) compute rdf, occasional, copy from (1)
      attributes: half, newton on
      pair build: copy
      stencil: none
      bin: none
  (4) compute rdf, occasional, copy from (1)
      attributes: half, newton on
      pair build: copy
      stencil: none
      bin: none
  (5) compute rdf, occasional, copy from (1)
      attributes: half, newton on
      pair build: copy
      stencil: none
      bin: none
  (6) compute rdf, occasional, copy from (1)
      attributes: half, newton on
      pair build: copy
      stencil: none
      bin: none
  (7) compute rdf, occasional, copy from (1)
      attributes: half, newton on
      pair build: copy
      stencil: none
      bin: none
Setting up Verlet run ...
  Unit style    : lj
  Current step  : 6000100
  Time step     : 0.005
Per MPI rank memory allocation (min/avg/max) = 17.41 | 19.84 | 20.44 Mbytes
Step Lx Ly Lz Press Pxx Pyy Pzz PotEng Temp 
 6000100    39.401618    29.973827    29.973827     1.312964  -0.75170123    2.1239772     2.566616   -1.7232305    1.0039914 
 6010000    39.401618    29.973827    29.973827  -0.11993872  -0.16211916 -0.078143459  -0.11955353   -1.9824623   0.80162312 
 6020000    39.401618    29.973827    29.973827  -0.17597534  -0.22819479 -0.079825275  -0.21990595   -1.9887479    0.7994455 
 6030000    39.401618    29.973827    29.973827  -0.15357905  -0.11788659  -0.15833944   -0.1845111   -1.9799967   0.79875684 
 6040000    39.401618    29.973827    29.973827  -0.11869884  -0.18396611  -0.04249389   -0.1296365   -1.9909233    0.8050697 
 6050000    39.401618    29.973827    29.973827  -0.18659911  -0.24353423  -0.13306987  -0.18319324   -1.9947856   0.79609154 
 6060000    39.401618    29.973827    29.973827  -0.15800135  -0.13119707  -0.28984553 -0.052961462   -1.9854307   0.80464682 
 6070000    39.401618    29.973827    29.973827 -0.097526908  -0.17913323  -0.10117557 -0.012271925   -1.9978711   0.80069047 
 6080000    39.401618    29.973827    29.973827  -0.17823693  -0.18477904   -0.1492083  -0.20072343    -1.993956   0.80280474 
 6090000    39.401618    29.973827    29.973827  -0.14271774  -0.16935951  -0.16072458 -0.098069145   -1.9877518   0.80569645 
 6100000    39.401618    29.973827    29.973827 0.0052729465  0.053823757  0.009318291 -0.047323208   -1.9935237   0.79498867 
 6100100    39.401618    29.973827    29.973827  -0.13347478 -0.082844408  -0.16957017  -0.14800976   -2.0004652   0.79550343 
Loop time of 1387.61 on 216 procs for 100000 steps with 28900 atoms

Performance: 31132.746 tau/day, 72.067 timesteps/s
99.9% CPU use with 216 MPI tasks x 1 OpenMP threads

MPI task timing breakdown:
Section |  min time  |  avg time  |  max time  |%varavg| %total
---------------------------------------------------------------
Pair    | 0.97975    | 23.595     | 73.241     | 222.1 |  1.70
Bond    | 0.075299   | 0.27062    | 0.56359    |  14.5 |  0.02
Kspace  | 1203.7     | 1257.5     | 1278.3     |  32.4 | 90.62
Neigh   | 16.061     | 17.06      | 18.054     |   8.5 |  1.23
Comm    | 27.152     | 34.711     | 58.335     |  84.7 |  2.50
Output  | 0.057766   | 0.057815   | 0.059563   |   0.1 |  0.00
Modify  | 39.516     | 44.069     | 48.321     |  28.6 |  3.18
Other   |            | 10.38      |            |       |  0.75

Nlocal:    133.796 ave 247 max 5 min
Histogram: 7 1 4 4 29 132 25 7 4 3
Nghost:    981.968 ave 1266 max 340 min
Histogram: 3 4 1 5 14 7 65 71 31 15
Neighs:    5230.03 ave 14143 max 20 min
Histogram: 10 6 20 124 29 11 8 5 1 2

Total # of neighbors = 1129686
Ave neighs/atom = 39.0895
Ave special neighs/atom = 0.602076
Neighbor list builds = 13431
Dangerous builds = 0
Total wall time: 30:38:53
