950
Atoms. Timestep: 0
H 0.865186 11.459300 1.687690
H 1.506060 12.429600 1.259170
H 1.521870 12.447800 1.254890
H 2.112600 13.049000 1.792990
H 2.097450 13.030700 1.796590
H 0.931143 11.846600 0.716784
H 1.636200 12.289300 2.235570
H 1.621660 12.271000 2.239690
H 0.914675 11.828400 0.721761
H 1.998280 13.207500 0.812301
H 1.981840 13.189300 0.816068
H 0.880381 11.477600 1.682700
H 0.661063 14.703900 0.834016
H 1.089870 14.978400 1.694640
H 1.089690 14.973800 1.698590
H 0.624566 14.227300 2.174440
H 2.573230 13.790500 1.353480
H 2.589010 13.808700 1.350400
H 3.329710 14.602200 1.905480
H 3.344820 14.620400 1.903280
H 2.703330 13.650200 2.331090
H 2.688830 13.631900 2.334000
H 3.065410 14.568300 0.907816
H 3.049010 14.550200 0.910375
H 2.018450 16.478900 0.753276
H 1.554810 15.720200 1.222740
H 1.706360 15.765400 1.717330
H 1.705830 15.580100 2.201250
H 1.277550 15.490900 0.856706
H 0.938667 15.113900 0.720069
H 2.019930 16.466600 0.746885
H 2.322850 16.552400 1.740020
H 2.338230 16.535800 1.729550
H 1.681550 11.970300 3.440450
H 1.694510 11.988800 3.436440
H 1.145880 11.511200 2.682800
H 1.159790 11.529700 2.678160
H 2.226930 12.890500 2.773680
H 2.213050 12.872100 2.777110
H 2.341250 12.732000 3.754360
H 2.328650 12.713500 3.757630
H 0.902178 14.466000 2.532570
H 0.726995 13.950100 3.377950
H 1.240710 14.833700 2.677100
H 1.391730 14.693600 3.655620
H 1.368280 14.703800 3.655970
H 0.714490 13.953600 3.370510
H 2.926730 13.560200 3.546740
H 2.913810 13.541800 3.549340
H 3.294060 14.251400 2.869190
H 3.280220 14.233000 2.871410
H 1.518670 15.253000 2.555260
H 1.947470 15.527600 3.415890
H 1.975530 15.512100 3.408910
H 2.296870 16.204200 2.714600
H 2.321970 16.186400 2.703920
H 5.657960 16.536300 7.730340
H 3.525940 16.471100 9.295520
H 6.029620 15.627300 9.157050
H 4.730820 16.692000 8.071080
H 5.102480 15.783100 9.497780
H 5.380220 16.159700 8.614060
H 4.453080 16.315400 8.954790
H 3.988940 15.904600 10.027900
H 5.809370 15.110100 10.261500
H 4.824730 15.406400 10.381500
H 1.298480 12.537800 32.590300
H 1.281090 12.519700 32.594900
H 1.866240 13.347900 32.386600
H 1.883950 13.366000 32.382700
H 2.513350 14.091200 32.703800
H 2.530700 14.109200 32.700600
H 0.811451 15.253100 32.284400
H 0.787646 15.254000 32.292600
H 1.465240 16.003300 32.569800
H 1.452380 15.997500 32.570300
H 5.063000 22.155700 3.192890
H 6.030450 21.941900 2.892780
H 4.081420 17.224300 7.528090
H 4.951070 17.209200 6.966640
H 5.935700 16.912900 6.846630
H 3.789130 19.934700 7.230640
H 3.827630 19.936700 7.228070
H 2.910600 20.397400 7.364060
H 2.875280 20.399700 7.373250
H 4.539260 19.308200 7.572090
H 4.577600 19.312700 7.574400
H 3.559790 16.954200 8.380520
H 4.842100 18.240800 9.236010
H 4.871210 18.242900 9.238460
H 4.924670 18.688200 8.306100
H 4.959580 18.692800 8.310250
H 2.346140 19.878100 8.937760
H 2.326520 19.645100 9.387050
H 1.514150 20.423800 8.838340
H 1.537210 20.412400 8.817780
H 3.026710 19.866000 8.205210
H 3.515920 19.632200 8.128090
H 3.858690 19.320300 8.304630
H 2.638230 19.949600 8.487030
H 3.204210 19.327600 9.028120
H 3.178130 19.332300 9.037170
H 4.081900 19.010200 8.669180
H 4.010110 18.786500 9.136590
H 3.770190 18.705700 9.569210
H 2.042590 20.578800 7.961710
H 2.072250 20.571500 7.945930
H 3.480970 18.264900 10.701100
H 3.497820 18.257900 10.692200
H 4.336170 18.083700 10.110300
H 4.313670 18.085800 10.112600
H 1.448840 19.962500 9.745990
H 1.431580 19.976400 9.768240
H 1.830820 19.342600 10.481800
H 1.816990 19.356400 10.502300
H 2.567120 18.729900 10.843700
H 2.580800 18.718600 10.828200
H 2.497560 19.344300 9.769720
H 3.329550 18.798600 9.869130
H 2.892500 19.023100 9.928150
H 4.119440 23.784200 3.869350
H 5.563040 23.015000 3.299880
H 4.363530 22.830000 3.550340
H 5.091260 23.829300 3.638110
H 4.396150 24.762500 4.064430
H 5.591300 24.688600 3.745090
H 5.119520 25.502800 4.083320
H 0.840939 27.313700 5.329330
H 0.745912 27.159800 4.310010
H 1.705750 29.545500 1.975190
H 1.687150 29.537200 1.969430
H 2.694880 29.300800 1.951240
H 2.712550 29.305500 1.952800
H 3.604890 29.135300 2.449270
H 3.586690 29.137800 2.451070
H 2.924470 29.356200 3.167800
H 2.945110 29.350400 3.169230
H 4.123610 29.091800 3.335000
H 4.143650 29.080300 3.331560
H 3.212020 29.374800 4.125350
H 3.234910 29.360500 4.126230
H 0.833521 29.783600 2.500780
H 0.854245 29.790800 2.510440
H 1.974700 29.555900 2.926980
H 1.995540 29.555500 2.932190
H 1.312480 29.774300 3.643720
H 1.335770 29.770700 3.652160
H 2.285340 29.565600 3.889190
H 2.262250 29.574600 3.884530
H 4.184480 29.155400 4.363270
H 4.161780 29.175100 4.366170
H 3.716440 29.340300 5.267950
H 3.690980 29.365500 5.268290
H 0.965796 29.995900 5.329120
H 0.937813 30.011400 5.318000
H 1.600030 29.793000 4.601270
H 1.625570 29.780700 4.609160
H 1.858130 29.825600 5.825590
H 1.829620 29.848300 5.817830
H 2.549800 29.593200 4.842080
H 2.575140 29.575600 4.846200
H 2.837350 29.611900 5.799630
H 2.864930 29.585700 5.803200
H 6.771490 16.414700 7.200190
H 7.234500 15.848200 7.932600
H 6.307360 16.003900 8.273330
H 7.200650 15.365200 8.847610
H 6.679010 15.095000 9.700040
H 7.006640 22.245900 2.730410
H 6.063080 23.874400 3.406870
H 6.534860 23.060200 3.068640
H 7.730000 22.986300 2.749300
H 7.034890 23.919500 3.175630
H 8.006710 23.964600 2.944380
H 6.563110 24.733700 3.513850
H 7.762630 24.918700 3.263390
H 7.063150 25.593000 3.620840
H 6.095700 25.806800 3.920960
H 15.082800 21.305000 11.220200
H 15.092800 22.184200 10.673700
H 16.264700 20.968700 11.059700
H 16.023900 21.826100 10.604900
H 15.574400 20.469400 11.583300
H 16.436000 19.901400 11.665800
H 16.225900 25.004100 7.539630
H 16.011900 25.937000 7.145140
H 16.304900 26.904300 6.920990
H 16.473400 23.182800 9.626510
H 16.889500 24.355600 7.998760
H 15.601800 22.871500 10.090400
H 16.714200 22.325400 10.081300
H 17.436600 19.753200 11.445600
H 18.308200 20.064400 10.981700
H 16.955000 21.468000 10.536100
H 17.195800 20.610600 10.990800
H 17.886100 21.109900 10.467200
H 17.645300 21.967200 10.012400
H 18.817200 20.751700 10.398400
H 18.827200 21.631000 9.851960
H 21.835100 18.251300 14.274000
H 20.690700 19.799600 13.732800
H 21.113500 18.862200 13.852300
H 21.671000 19.471400 14.416100
H 22.228600 20.080600 14.980000
H 21.454300 20.446500 14.463700
H 22.011800 21.055700 15.027600
H 20.679900 20.812300 13.947500
H 21.084100 21.628900 14.438800
H 21.795000 22.030700 15.075200
H 16.957900 26.001200 7.463000
H 17.465000 26.856100 7.354050
H 18.410900 26.920300 7.671900
H 17.026200 27.646800 6.927240
H 17.903800 26.065400 7.780850
H 21.939400 27.572200 7.328280
H 22.250700 27.297400 7.606190
H 21.037300 27.530100 7.757640
H 21.048000 27.563200 7.742780
H 17.474000 23.034500 9.406320
H 18.335500 22.466500 9.488830
H 17.396700 25.210500 7.889800
H 17.824900 24.165200 8.399490
H 18.342600 25.274700 8.207660
H 18.781400 24.483900 8.634460
H 19.502700 25.226500 8.640710
H 19.581700 27.126700 8.022070
H 18.849700 26.129600 8.098710
H 19.795700 26.193800 8.416560
H 21.642100 26.929900 8.345590
H 21.649900 26.960200 8.330900
H 22.131100 28.859800 5.474450
H 22.115400 28.837200 5.492940
H 17.982700 27.965600 7.162210
H 18.918100 27.775200 7.562950
H 21.310500 28.631300 6.110660
H 20.929400 28.185300 6.923870
H 20.915900 28.152900 6.939610
H 22.076000 28.122800 6.504790
H 21.890500 27.910000 6.902680
H 21.325800 28.659900 6.093610
H 21.893800 30.797100 7.807510
H 21.897700 30.822800 7.840730
H 21.614400 30.288200 8.680810
H 21.613500 30.271100 8.653950
H 21.851200 29.627500 9.429170
H 21.848000 29.632700 9.447310
H 25.643500 1.307460 7.473920
H 24.842200 1.900730 7.397430
H 24.580200 1.031210 6.900400
H 26.444800 0.714190 7.550400
H 26.457000 1.626180 7.960350
H 27.258300 1.032920 8.036830
H 27.398100 2.135300 8.585450
H 25.533500 2.452320 7.935450
H 26.469100 2.538180 8.370290
H 22.662100 18.130600 14.884800
H 22.445400 19.105600 14.932400
H 23.373000 18.532400 15.521200
H 23.002900 19.714800 15.496300
H 23.766500 20.361700 16.227200
H 23.777200 19.349000 16.012500
H 23.343700 21.299100 16.107700
H 22.622100 21.910000 15.686000
H 22.786100 20.689900 15.543800
H 24.655100 27.706100 6.020180
H 24.645800 27.698300 6.040200
H 23.607000 27.105700 7.293050
H 23.211800 27.022100 7.584990
H 23.812600 27.359300 6.860280
H 22.841500 27.614200 6.898920
H 22.851600 27.634600 6.881480
H 23.743700 27.656300 6.469560
H 22.704900 27.063600 7.722410
H 24.767100 27.075600 6.858230
H 24.773700 27.084000 6.839080
H 24.377300 26.609400 7.669350
H 24.372500 26.597200 7.687170
H 25.878300 23.874600 9.069500
H 25.906300 23.862100 9.092260
H 25.880300 23.884600 9.079400
H 26.738000 23.298200 9.087140
H 26.735300 23.301100 9.096220
H 26.762200 23.280600 9.121550
H 27.531000 22.891300 9.616520
H 27.537500 22.896400 9.607810
H 27.552700 22.874800 9.652840
H 25.195100 24.485400 9.570560
H 25.214100 24.463500 9.572820
H 25.188700 24.471300 9.559620
H 23.572000 26.409500 8.288510
H 23.567700 26.391300 8.304900
H 22.568300 26.513100 8.545900
H 22.573700 26.537900 8.530650
H 27.291700 23.344900 10.769400
H 27.287900 23.363500 10.728200
H 27.284000 23.357100 10.738000
H 26.639900 23.608500 10.058300
H 26.625600 23.624100 10.025800
H 26.624600 23.625200 10.035700
H 26.513900 23.949300 10.975200
H 26.513300 23.950000 10.964500
H 26.517600 23.936300 10.995000
H 24.973700 25.133600 11.449500
H 24.963900 25.123100 11.436900
H 24.969500 25.119300 11.446300
H 24.854000 24.928200 10.426200
H 24.863200 24.942500 10.438100
H 24.871200 24.923700 10.434400
H 25.743600 24.527800 11.220700
H 25.743800 24.541400 11.212400
H 25.738600 24.536600 11.200700
H 25.865900 24.199900 10.283900
H 25.854500 24.217300 10.272900
H 25.851000 24.210600 10.262000
H 27.148200 24.025400 12.859400
H 27.147500 24.014000 12.871000
H 27.129000 24.010600 12.897800
H 27.175500 23.689400 11.666900
H 27.173300 23.681200 11.677500
H 27.169400 23.672800 11.706100
H 25.482600 24.997900 12.337200
H 25.489000 25.003600 12.321100
H 25.496900 25.007300 12.333900
H 26.292500 24.597500 12.854200
H 26.273000 24.592100 12.868500
H 26.288500 24.601800 12.841800
H 26.395300 24.264200 11.931800
H 26.400900 24.275900 11.903100
H 26.403200 24.273400 11.914700
H 23.129400 28.731400 5.232300
H 23.114800 28.715400 5.251940
H 24.041000 28.298500 5.452250
H 24.053200 28.309100 5.432050
H 22.491300 28.247200 6.177960
H 23.452400 27.971900 6.156770
H 22.978200 28.164800 6.075430
H 23.593000 31.027000 6.799640
H 22.621900 31.093200 7.152180
H 23.568200 30.432000 7.602930
H 24.048200 30.229000 7.619520
H 23.081700 30.448400 7.752410
H 22.616900 31.064600 7.116650
H 23.589100 31.001900 6.766500
H 24.550800 30.641900 6.877580
H 24.549900 30.625800 6.850880
H 25.241900 30.037000 7.347170
H 25.238700 30.041200 7.365120
H 25.631300 32.946500 7.063970
H 24.817900 32.627800 6.577540
H 25.491500 31.844100 6.515360
H 26.420500 31.441300 6.730520
H 27.246100 32.672000 7.626890
H 26.432700 32.353200 7.140460
H 27.356100 31.527100 7.165360
H 23.518500 29.241900 9.209500
H 24.011300 29.216000 9.023930
H 23.044800 29.435500 9.156820
H 25.479500 29.393400 8.122390
H 25.472300 29.385700 8.131620
H 25.189000 28.851200 8.971700
H 25.199300 28.867300 8.968840
H 24.476100 28.599800 9.659690
H 24.464800 28.580700 9.660250
H 24.366200 29.344100 8.688960
H 22.720500 30.329900 8.123470
H 23.546500 29.832200 8.388170
H 23.543300 29.837000 8.406210
H 22.695700 29.734800 8.926760
H 22.580000 30.051700 8.521060
H 24.391000 29.939100 7.885670
H 24.513000 29.612800 8.255280
H 22.543100 29.038700 9.925460
H 22.535900 29.032000 9.934850
H 23.493700 28.646900 10.012800
H 23.503900 28.662600 10.009800
H 28.071700 1.351640 8.523270
H 32.408500 13.761100 0.693253
H 32.392200 13.411700 1.667620
H 32.407900 13.404400 1.649260
H 32.433900 13.752600 0.674677
H 33.024600 14.367400 1.195920
H 33.024400 14.191400 1.671950
H 32.710500 13.480900 2.650290
H 32.712300 13.478000 2.636000
H 30.146300 15.026200 9.346390
H 30.111300 16.006400 9.015280
H 30.302300 14.342000 10.107500
H 30.537500 14.137100 11.094600
H 30.354700 16.068700 9.983180
H 30.598100 16.131000 10.951100
H 30.450200 15.236500 10.529300
H 30.789000 14.466500 12.043300
H 30.989300 15.241900 12.699300
H 30.841400 16.193300 11.919000
H 31.084800 16.255600 12.886900
H 30.693500 15.298800 11.497200
H 31.385200 15.432800 14.819800
H 31.774000 16.291200 14.391200
H 31.044200 14.816200 16.691500
H 31.118000 14.892900 15.661700
H 31.612300 16.027200 15.591200
H 31.441800 15.718900 16.527100
H 31.839400 16.621600 16.362600
H 31.183400 15.223300 17.633100
H 31.498400 16.005000 18.234300
H 31.668900 16.313300 17.298500
H 32.783300 14.429300 32.524400
H 32.754900 14.435400 32.539300
H 30.206800 17.020000 9.202860
H 30.502600 16.963200 10.405000
H 30.745900 17.025500 11.372900
H 30.407100 17.795400 9.858880
H 30.658600 18.124900 10.807600
H 30.893800 17.920000 11.794700
H 31.049800 17.235800 12.555800
H 32.180400 17.238200 14.490900
H 32.495400 18.019900 15.092100
H 32.634600 18.426900 16.033800
H 32.237000 17.524200 16.198200
H 32.009900 16.929900 15.426800
H 32.293600 17.810300 17.905500
H 32.560700 18.350200 17.063500
H 32.066500 17.215900 17.134000
H 31.904800 16.951900 18.334000
H 30.779600 27.477600 3.060440
H 31.120500 27.565400 3.996380
H 32.085800 27.395600 4.194880
H 32.710100 27.138000 3.457450
H 31.788700 27.254400 3.000070
H 31.461500 27.653200 4.932320
H 31.802400 27.741100 5.868260
H 32.426700 27.483500 5.130820
H 32.969700 27.558600 6.242260
H 28.054100 22.765000 10.500900
H 28.062600 22.776900 10.492000
H 28.065800 22.753400 10.543800
H 27.832700 23.413200 12.379900
H 27.837800 23.428700 12.369300
H 27.821100 23.409200 12.417200
H 28.164600 22.956000 11.512300
H 28.172500 22.971800 11.502800
H 28.164000 22.949000 11.555600
H 29.953200 27.747800 3.622370
H 32.913800 29.974000 3.402900
H 32.937300 29.975800 3.415120
H 29.531000 27.992700 4.535310
H 29.626000 28.146700 5.554620
H 30.837200 27.910800 5.669750
H 30.496200 27.823000 4.733810
H 32.951900 30.057300 4.434070
H 32.978100 30.050800 4.446830
H 31.134300 28.052100 6.864560
H 30.212800 28.168400 6.407190
H 32.143400 27.828900 6.804200
H 28.047400 32.078700 7.703380
H 28.309400 32.948200 8.200410
H 5.767550 5.026520 25.892800
H 5.144640 5.796680 25.576000
H 5.137030 5.790340 25.591600
H 5.776770 5.034840 25.878900
H 5.745230 1.616110 27.389000
H 5.272450 0.696761 27.443800
H 5.859430 0.638262 26.636300
H 4.578110 4.084910 27.535500
H 5.968030 4.220690 26.511000
H 5.695380 3.597600 27.267300
H 5.684750 3.588760 27.280500
H 5.978360 4.229930 26.498000
H 4.586810 4.090680 27.519700
H 2.357180 5.518790 27.640500
H 2.361540 5.518190 27.619600
H 4.162610 4.869740 27.075700
H 3.753090 5.657430 26.597800
H 3.259890 5.194260 27.358100
H 3.747100 5.654570 26.616000
H 4.169950 4.874060 27.058800
H 3.265750 5.196120 27.339200
H 5.065320 4.545210 26.793400
H 4.657290 5.335370 26.317400
H 4.649820 5.330040 26.333700
H 5.074150 4.551990 26.778400
H 3.195260 3.951440 28.541500
H 3.188180 3.949130 28.559900
H 4.088560 3.436820 28.447100
H 4.079800 3.431980 28.463500
H 4.993610 3.300080 27.995200
H 5.003660 3.307310 27.980700
H 3.675390 4.409430 27.817800
H 3.682600 4.412750 27.800100
H 2.563130 4.713270 28.238600
H 2.557660 4.712950 28.258700
H 5.754410 5.862010 29.355200
H 4.251340 6.311300 25.670400
H 4.245410 6.307490 25.688000
H 2.640460 6.150710 26.871000
H 2.644520 6.150510 26.850300
H 3.331600 6.439390 26.156300
H 3.336230 6.440810 26.136800
H 5.523500 6.862440 29.487700
H 5.828100 7.842660 29.622300
H 1.893420 22.542300 23.010100
H 2.307310 22.843900 23.869000
H 1.175080 22.358800 23.732700
H 2.833560 22.887400 22.747900
H 3.743590 23.301600 23.016200
H 3.232390 23.223600 23.872000
H 4.379670 23.674000 23.743100
H 2.109690 26.563000 23.100000
H 2.097450 26.568900 23.089500
H 1.354350 27.259400 22.882900
H 1.368070 27.252700 22.885600
H 1.575690 27.388600 23.854300
H 1.570770 27.393700 23.849900
H 2.757420 26.135300 23.759000
H 2.763860 26.130800 23.776100
H 1.796110 22.765800 24.724900
H 2.210000 23.067400 25.583800
H 1.062720 22.616900 25.712700
H 0.871023 22.386200 24.721900
H 2.721190 23.145500 24.727900
H 3.646280 23.525200 24.730900
H 3.135080 23.447100 25.586800
H 4.267310 23.932100 25.723100
H 4.571360 23.904800 24.733900
H 1.990940 27.660300 25.791700
H 1.783310 27.524400 24.823000
H 2.273590 26.827600 24.299500
H 2.272300 26.831600 24.288000
H 1.787190 27.527900 24.816900
H 2.003610 27.662200 25.783900
H 2.488720 26.965900 25.255000
H 2.481210 26.963500 25.268200
H 3.157410 26.074900 24.711900
H 3.155300 26.072100 24.732600
H 3.179110 26.402500 25.713400
H 3.190260 26.403800 25.693000
H 1.698800 22.989300 26.439600
H 2.608830 23.403600 26.707900
H 3.548970 23.748700 26.445700
H 2.828920 27.033500 26.455700
H 2.847150 27.033900 26.439300
H 0.727222 28.021900 23.194500
H 0.737706 28.015300 23.190400
H 5.043690 29.243600 24.021800
H 5.035460 29.255700 24.022200
H 4.065130 30.528900 23.397100
H 3.287840 31.150600 23.492900
H 4.064950 30.549000 23.401400
H 3.289450 31.172900 23.497500
H 3.929590 31.328900 22.447900
H 3.921860 31.301500 22.438800
H 4.641170 30.570700 22.580800
H 4.645460 30.594400 22.588500
H 5.051790 29.817400 23.160200
H 5.050240 29.835500 23.164700
H 4.266390 29.865400 24.117600
H 4.259950 29.879600 24.118300
H 2.363800 31.996900 23.497600
H 2.359150 31.971200 23.492000
H 3.094450 31.842200 22.780700
H 3.086580 31.814200 22.772400
H 1.302070 28.224200 25.345800
H 1.293040 28.221200 25.346500
H 1.085650 28.090000 24.378900
H 1.085420 28.085400 24.377800
H 0.802765 28.918000 25.870000
H 0.816959 28.920500 25.874800
H 3.874440 29.164900 25.648100
H 3.891610 29.160000 25.654500
H 4.605090 29.010200 24.931200
H 4.619030 29.003000 24.934800
H 1.926390 31.156800 25.266600
H 1.918650 31.171600 25.264000
H 2.337010 30.403500 25.846000
H 2.323430 30.412700 25.840300
H 2.708940 31.127500 24.310500
H 2.711790 31.108800 24.309200
H 3.484440 30.503500 24.214400
H 3.489090 30.487100 24.213400
H 3.679440 29.834200 24.931200
H 3.690350 29.823600 24.933900
H 2.903930 30.458100 25.027300
H 2.913050 30.445300 25.029700
H 5.815410 31.260800 25.505700
H 1.933430 31.751400 24.406500
H 1.934500 31.730600 24.405000
H 2.198560 27.796100 26.760400
H 1.476930 28.486900 26.544300
H 1.456940 28.485900 26.546100
H 2.220030 27.796400 26.750900
H 3.056330 29.672700 25.988000
H 3.039290 29.678200 25.980800
H 5.879690 32.350300 26.092600
H 5.312970 31.569800 26.356400
H 5.114230 32.297100 27.065800
H 7.013130 1.360270 25.565100
H 7.579860 2.140780 25.301400
H 7.778590 1.413470 24.592000
H 6.426150 1.418770 26.372600
H 6.405900 2.257780 26.916300
H 7.077410 2.449820 26.152100
H 9.235920 1.057240 28.932300
H 9.238660 1.060350 28.955100
H 7.448310 4.806320 29.228800
H 6.458930 5.109410 29.260500
H 6.990470 5.948190 29.378200
H 7.989710 5.910460 29.382300
H 8.457430 5.033950 29.268700
H 9.215900 5.731290 29.369500
H 8.768250 1.352340 29.807500
H 8.762550 1.348400 29.828100
H 8.134620 1.144760 30.599400
H 8.122830 1.133770 30.613200
H 9.926350 11.319300 27.434500
H 9.921740 11.325700 27.458700
H 6.522750 6.824710 29.491800
H 7.522000 6.786980 29.495900
H 8.521240 6.749240 29.500000
H 9.520490 6.711510 29.504200
H 11.047700 7.902490 28.748800
H 11.066700 7.892870 28.755600
H 11.160600 8.371940 27.842700
H 11.145300 8.379790 27.835300
H 9.678470 10.771100 28.277000
H 9.684300 10.776800 28.303700
H 10.576700 11.182600 28.501000
H 10.568500 11.176900 28.484900
H 9.925080 10.445200 29.254400
H 9.907530 10.440400 29.230900
H 11.005300 10.999300 29.366600
H 11.024300 11.004200 29.377200
H 7.054280 7.663490 29.609500
H 8.053530 7.625760 29.613600
H 9.289590 7.711950 29.636600
H 11.434400 7.684150 29.700600
H 11.412300 7.694410 29.695100
H 6.586570 8.540010 29.723100
H 7.595690 8.767630 29.763000
H 8.585060 8.464540 29.731300
H 11.439600 10.703900 30.489100
H 10.579500 10.420100 30.056100
H 10.552200 10.415800 30.040600
H 10.584700 11.938000 26.929100
H 10.573800 11.945100 26.945900
H 11.465700 12.468900 26.902700
H 11.021600 11.760300 27.810900
H 11.021400 11.766800 27.822100
H 11.469000 11.588400 28.698300
H 11.458400 11.582700 28.692700
H 7.147590 32.094500 24.268700
H 7.033390 33.072300 25.021400
H 6.486930 31.452800 24.741500
H 6.466670 32.291800 25.285200
H 6.446410 33.130800 25.828900
H 7.620370 33.013800 24.214000
H 7.541430 30.147400 29.172500
H 7.529470 30.151300 29.186100
H 8.181150 30.362000 28.387400
H 8.166570 31.192700 28.943800
H 8.155980 31.193100 28.945500
H 8.163110 30.358900 28.394200
H 8.792920 31.013500 27.897700
H 8.813050 31.021800 27.900400
H 8.699510 31.983600 28.663300
H 8.709910 31.986700 28.671200
H 8.692390 32.817800 29.214600
H 8.695330 32.817400 29.227700
H 8.148860 32.027300 29.496800
H 8.151990 32.023400 29.500300
H 9.423610 32.897800 28.228200
H 9.412310 32.889600 28.208400
H 9.267820 31.950000 27.842200
H 9.250170 31.939800 27.829700
H 7.605330 31.236900 29.779100
H 7.608650 31.229400 29.772900
H 7.061800 30.446400 30.061300
H 7.065320 30.435400 30.045400
H 6.880370 31.149000 30.772300
H 6.885410 31.165100 30.785200
H 7.504800 33.041200 31.095900
H 7.047560 32.114900 31.163900
H 7.036160 32.096800 31.158400
H 7.594070 32.060100 30.329300
H 7.598210 32.071100 30.330400
H 7.490930 33.025000 31.100100
H 8.137410 32.854100 30.056700
H 8.141740 32.861600 30.048100
H 11.690900 8.992980 27.206500
H 11.679000 8.998410 27.199500
H 12.515500 9.589590 27.017400
H 12.505600 9.592600 27.011700
H 13.413500 10.001900 27.326100
H 13.403800 10.003100 27.322200
H 12.111800 8.292970 29.288000
H 11.910200 8.404860 28.810100
H 11.974900 8.636870 28.359000
H 12.789300 8.901800 28.875300
H 12.772600 8.907220 28.871500
H 13.088200 9.455180 28.096800
H 12.225800 8.952820 28.035500
H 12.652400 9.245690 27.946300
H 13.466800 9.510620 28.462600
H 13.635100 9.409590 28.932800
H 13.603700 9.166730 29.391600
H 14.512000 9.910730 28.994900
H 14.497500 9.911950 28.994100
H 14.144300 10.119400 28.050000
H 14.132900 10.120000 28.047800
H 12.165100 7.801690 30.424400
H 12.141400 7.811310 30.420700
H 13.039600 8.221850 30.731200
H 13.063100 8.214010 30.733200
H 12.457000 8.359260 29.646100
H 12.926200 8.557910 29.804200
H 13.319400 8.861630 29.707400
H 14.418100 9.431660 29.907800
H 14.399900 9.434660 29.907600
H 13.866300 8.816040 30.543400
H 13.887700 8.810620 30.544100
H 11.916600 11.410100 29.574600
H 11.895300 11.405000 29.574500
H 12.332100 11.227400 30.456300
H 12.364300 11.231700 30.450800
H 11.472300 10.707900 30.494000
H 12.358500 12.756800 27.340600
H 12.364700 12.749600 27.344800
H 11.477200 12.461500 26.896300
H 11.911600 12.166100 28.018800
H 11.913700 12.172600 28.019500
H 13.009300 12.725000 28.154500
H 13.012900 12.731600 28.142300
H 12.361400 11.994300 28.895700
H 12.348400 11.988500 28.900500
H 13.238400 12.394300 29.108400
H 13.253700 12.400100 29.093000
H 12.990500 11.846100 29.950900
H 13.016300 11.851100 29.938000
H 29.719000 0.917398 18.680500
H 29.708600 0.920635 18.681200
H 30.228400 1.118430 17.850100
H 30.244800 1.108510 17.851700
H 29.708700 1.990020 18.054900
H 29.724000 1.981860 18.045900
H 29.049700 2.522070 18.650200
H 29.060900 2.518780 18.632200
H 29.127000 1.622530 19.070700
H 29.188900 0.722839 19.512300
H 29.193100 0.726284 19.509300
H 28.601200 1.431420 19.899500
H 28.599500 1.424660 19.912300
H 29.119300 1.622460 19.081200
H 28.010100 2.126480 20.312300
H 28.009200 2.136550 20.289800
H 28.428000 2.572020 19.476500
H 28.433300 2.575400 19.453600
H 27.908200 1.304840 20.933800
H 27.902400 1.319820 20.916900
H 30.483800 32.683800 18.101600
H 30.469600 32.691900 18.090700
H 28.669100 33.076100 20.343300
H 29.258500 32.374300 19.943300
H 29.259300 32.381100 19.947800
H 29.328100 31.474700 20.374300
H 29.325400 31.484800 20.386300
H 28.667300 33.086200 20.338100
H 29.778200 32.572100 19.112200
H 30.377000 31.867100 18.728700
H 30.367600 31.870200 18.712200
H 29.785100 32.572200 19.119000
H 29.953000 31.428200 19.565000
H 29.949800 31.424700 19.548000
H 28.141500 32.895100 21.166900
H 28.149300 32.878300 21.174400
H 28.669100 32.006700 20.969600
H 28.662300 32.021800 20.972600
H 32.938600 28.646300 23.932600
H 32.935200 28.652000 23.940800
H 32.962400 28.976700 24.913400
H 32.968000 28.980900 24.921900
H 18.794100 21.786900 0.789985
H 18.822100 21.772100 0.787504
H 19.825300 21.744800 1.041570
H 19.797000 21.750700 1.043990
H 20.779400 22.018700 0.857230
H 20.805500 22.020400 0.854188
H 18.039300 22.117400 32.714300
H 18.064700 22.095100 32.711100
H 19.782300 22.310000 32.768900
H 18.629600 25.302600 25.464600
H 18.733300 24.284000 25.618000
H 18.823400 26.277200 25.754800
H 19.106700 23.494500 26.173900
H 19.649700 23.145600 26.983300
H 19.694700 24.142200 27.051700
H 19.236500 24.711400 26.369000
H 19.281600 25.708000 26.437400
H 19.739700 25.138800 27.120100
H 19.829800 27.132000 27.256900
H 19.262700 26.946900 26.410800
H 19.784800 26.135400 27.188500
H 20.216800 23.330700 27.829300
H 20.656100 24.000300 28.485300
H 20.243000 25.566200 27.871100
H 20.197900 24.569600 27.802700
H 20.849800 24.975000 28.775500
H 20.372800 26.783100 28.066300
H 20.746200 25.993500 28.622200
H 17.962500 23.252200 31.069300
H 17.978600 23.225600 31.063600
H 18.661000 23.752500 30.491800
H 18.673000 23.730200 30.485000
H 19.653100 24.005800 30.297600
H 19.643400 24.020400 30.305100
H 19.190600 23.319000 31.220900
H 19.696200 23.440500 31.121400
H 20.183300 23.434900 31.254600
H 20.656400 23.978500 30.551700
H 20.646400 23.984300 30.559100
H 21.413800 23.655500 31.179100
H 21.401100 23.653700 31.185800
H 17.755900 22.627100 31.878400
H 17.734900 22.653800 31.882800
H 19.257100 22.336200 32.645500
H 18.727500 22.769700 31.916400
H 19.720200 22.885600 31.950100
H 18.858900 23.050400 31.504400
H 19.739200 22.875300 31.945100
H 18.902000 22.485200 32.328100
H 20.249800 22.452100 32.679200
H 21.477900 22.518900 32.830800
H 21.499900 22.525000 32.826600
H 20.576500 23.265400 31.562100
H 20.619600 22.700200 32.385900
H 21.705500 23.117400 32.017300
H 21.722600 23.123500 32.011800
H 20.712900 23.001500 31.983700
H 16.118900 1.818930 25.822500
H 16.113000 1.825400 25.814700
H 15.557700 2.699050 25.822800
H 15.557000 2.688400 25.826900
H 15.433200 3.679440 26.131100
H 15.425000 3.669000 26.131400
H 16.639300 2.461420 26.379100
H 16.640000 2.461030 26.384700
H 16.814200 4.028160 27.101300
H 16.825600 4.024450 27.101600
H 16.293100 3.386060 26.539100
H 16.299300 3.388440 26.537300
H 15.772800 4.503890 26.657000
H 15.758100 4.497980 26.654400
H 16.485600 4.951470 27.259800
H 16.467200 4.953200 27.255800
H 17.508100 2.178080 26.792500
H 17.505400 2.170410 26.785300
H 18.564200 1.708270 27.239400
H 18.558200 1.690970 27.229800
H 17.855100 1.253050 26.638000
H 17.845400 1.243380 26.627100
H 16.950400 1.292590 26.109200
H 16.960100 1.293550 26.119400
H 17.165500 3.097430 26.943400
H 17.161200 3.103120 26.946900
H 18.029300 2.820180 27.354700
H 18.031700 2.806420 27.349600
H 17.682300 3.745220 27.509100
H 17.691800 3.733440 27.507800
H 18.773300 3.495800 28.064100
H 18.765300 3.517840 28.066900
H 18.897400 2.537240 27.762400
H 18.897900 2.515410 27.755800
H 18.203400 4.387320 28.071300
H 18.218000 4.369450 28.072100
H 17.380600 4.902260 27.777700
H 17.362300 4.912690 27.774400
H 19.628600 5.996690 3.054580
H 20.169400 5.484700 3.825480
H 20.119300 5.493270 3.814540
H 19.674400 5.983830 3.065500
H 20.812900 5.497940 4.636310
H 21.397600 6.015190 5.261320
H 21.432500 6.020000 5.280720
H 20.766800 5.500050 4.622260
H 18.699400 6.009250 6.232530
H 19.186400 5.546680 7.020330
H 19.800700 5.602800 7.851700
H 19.566400 7.893960 2.425110
H 19.460500 6.861590 2.560000
H 19.426300 6.875400 2.546010
H 20.135500 7.645640 3.208950
H 20.154400 7.639840 3.229830
H 20.166600 6.697000 3.523690
H 20.199000 6.690360 3.540370
H 20.704600 7.397320 3.992790
H 20.723600 7.396900 4.015240
H 19.585100 7.882790 2.444430
H 20.014800 8.773790 2.749750
H 20.011600 8.779440 2.724270
H 20.642400 9.294590 3.363320
H 20.634400 9.295860 3.394160
H 20.679000 8.346380 3.704700
H 20.673500 8.345960 3.678060
H 21.289900 9.301370 4.171050
H 21.277900 9.309090 4.204990
H 18.470300 6.866580 5.699410
H 20.735700 6.448680 4.307530
H 21.862200 6.911000 5.586040
H 21.842800 6.900680 5.560480
H 21.292900 7.153950 4.800640
H 21.273700 7.149000 4.776630
H 20.768300 6.447420 4.325770
H 18.560400 7.888940 5.563810
H 18.945600 8.802390 5.862060
H 21.986800 7.932200 5.470470
H 21.982900 7.919240 5.439570
H 21.248300 8.103430 4.490100
H 21.242600 8.097640 4.461900
H 21.780600 8.797950 4.931010
H 21.772900 8.809960 4.964970
H 19.180600 6.745870 6.707760
H 19.661700 7.482490 7.182980
H 19.111100 7.685710 6.373400
H 19.731200 6.542640 7.517340
H 19.592200 8.422330 6.848620
H 20.137000 9.418300 7.345640
H 19.522700 9.362180 6.514260
H 20.142800 8.219100 7.658210
H 20.212400 7.279260 7.992570
H 20.377800 6.162580 8.503900
H 20.763000 7.076030 8.802160
H 20.853100 8.098390 8.666550
H 20.624000 8.955720 8.133430
H 19.934100 31.086400 18.354800
H 20.905900 31.278900 18.054400
H 20.953600 30.407100 18.541900
H 21.830100 29.935600 18.638700
H 21.903300 31.004100 18.015200
H 20.172400 29.135100 19.420300
H 19.343500 28.734900 19.811100
H 20.099200 28.066600 20.043700
H 21.001200 29.535400 19.029500
H 21.048900 28.663600 19.517000
H 21.877700 29.063800 19.126200
H 22.068300 27.984300 19.704100
H 21.096500 27.791800 20.004600
H 19.032100 29.617700 19.369100
H 20.124700 30.006900 18.932700
H 19.248200 30.478400 18.836000
H 22.970400 29.453100 18.689900
H 22.658900 30.335800 18.247800
H 22.754200 28.592300 19.222900
950
Atoms. Timestep: 50000
H 4.618550 4.953840 27.176500
H 5.566060 4.668700 27.057600
H 5.433430 5.461940 26.405700
H 4.613070 4.946440 27.178400
H 5.576780 4.694390 27.056400
H 4.242850 5.707820 26.646300
H 5.577990 1.010600 27.210300
H 4.235320 5.710580 26.647000
H 1.754090 5.779630 27.541000
H 1.743860 5.732170 27.536700
H 3.277090 5.970030 26.767000
H 2.702090 5.472730 27.416700
H 3.660080 5.224170 27.299300
H 2.707080 5.501900 27.420100
H 3.660320 5.213280 27.296600
H 3.289860 5.985550 26.767200
H 5.430740 5.487930 26.407800
H 5.999160 2.679470 27.403400