ITEM: TIMESTEP
7000000
ITEM: NUMBER OF ATOMS
950
ITEM: BOX BOUNDS pp pp pp
6.1947513800704712e-01 3.3170524861999581e+01
6.1947513800704712e-01 3.3170524861999581e+01
6.1947513800704712e-01 3.3170524861999581e+01
ITEM: ATOMS id mol type x y z 
27167 309 4 3.4369 1.86089 2.15004 
27853 345 4 3.43849 1.87375 2.12542 
27852 345 4 3.14296 2.54805 1.39761 
27169 309 4 3.35009 3.39124 0.865421 
27168 309 4 3.15928 2.53486 1.41491 
27158 309 4 4.0334 2.87523 1.76131 
27851 345 4 3.31672 3.40876 0.84924 
27842 345 4 4.01865 2.89589 1.73244 
27170 309 4 3.95822 4.20055 0.648802 
27850 345 4 3.91319 4.22525 0.627237 
27153 309 4 4.90752 3.2156 2.10772 
27837 345 4 4.89434 3.24373 2.06727 
27159 309 4 4.43287 3.70807 1.37826 
27841 345 4 4.40377 3.73449 1.34725 
27840 345 4 5.27946 4.08233 1.68208 
27154 309 4 5.30699 4.04844 1.72466 
27839 345 4 5.77003 3.59157 2.4021 
27849 345 4 4.77257 4.77874 0.79109 
27171 309 4 4.82071 4.74594 0.823097 
27160 309 4 5.70646 4.88128 1.3416 
27848 345 4 5.66458 4.92093 1.29689 
27166 309 4 4.10858 1.54991 2.87383 
27854 345 4 4.12411 1.56653 2.83765 
27844 345 4 5.87549 2.26221 3.50731 
27165 309 4 4.99434 1.68525 3.39233 
27855 345 4 5.01612 1.70871 3.34345 
27164 309 4 5.85683 2.23064 3.56663 
27157 309 4 4.50805 2.38275 2.49077 
27843 345 4 4.50923 2.40513 2.45246 
27155 309 4 5.78165 3.55596 2.45412 
27156 309 4 5.38217 2.72312 2.83717 
27838 345 4 5.38492 2.75297 2.78729 
27091 305 4 1.79105 5.11157 7.26895 
27092 305 4 0.834171 5.45632 7.07592 
27090 305 4 2.44008 4.53858 7.83655 
27080 305 4 1.4451 3.8009 9.04719 
27088 305 4 2.24805 3.34203 9.42751 
27089 305 4 2.60735 3.89088 8.62664 
27082 305 4 0.738158 4.85805 7.8714 
27077 305 4 0.642144 4.25977 8.66688 
27081 305 4 1.54111 4.39918 8.25172 
27087 305 4 1.45845 3.03909 10.0246 
27611 333 4 0.893983 5.84648 9.76056 
27643 334 4 2.04189 5.52166 9.71501 
27617 333 4 2.09772 5.55193 9.76712 
27641 334 4 1.54238 4.38495 11.2829 
27627 333 4 1.59057 4.42401 11.3388 
27633 334 4 1.10029 5.52008 10.0517 
27610 333 4 1.1491 5.20788 10.4865 
27632 334 4 0.85054 4.95173 10.8356 
27642 334 4 2.04483 4.86587 10.516 
27616 333 4 2.09855 4.90747 10.5773 
27640 334 4 0.669177 4.20777 11.81 
27626 333 4 0.709896 4.23107 11.8477 
27729 339 4 6.01691 1.972 32.2028 
27750 340 4 4.54441 1.22934 31.645 
27730 339 4 4.55997 1.20776 31.6614 
27743 340 4 5.60884 1.65902 32.112 
27724 339 4 5.35114 1.22916 32.2726 
27744 340 4 5.2932 0.812172 32.54 
27741 339 4 5.08395 2.0589 31.3917 
27749 340 4 5.07427 2.07767 31.3779 
27760 340 4 5.89061 2.70165 31.5043 
27740 339 4 5.89152 2.69344 31.5218 
27619 333 4 0.706809 6.6362 8.82402 
27645 334 4 0.658208 6.65521 8.82046 
27618 333 4 1.58831 6.18469 9.12537 
27644 334 4 1.53435 6.1766 9.09438 
27179 310 4 5.8417 7.45666 12.2179 
27190 310 4 5.0795 8.15074 12.1228 
27189 310 4 4.6515 9.0546 12.3904 
27178 310 4 5.48912 8.99412 12.9332 
27188 310 4 4.67238 9.92605 12.9489 
27177 310 4 5.73164 9.73261 13.5623 
27186 310 4 5.91962 10.7089 14.3021 
27187 310 4 5.13654 10.5316 13.6486 
27380 320 4 5.97375 14.764 2.41642 
27379 320 4 5.71636 15.6 2.9701 
27378 320 4 5.87365 16.2191 3.78482 
27203 311 4 1.43621 21.4703 29.4433 
27204 311 4 2.47076 21.4461 29.4724 
27318 317 4 1.09115 21.496 31.352 
27256 314 4 2.0547 20.9772 31.2164 
27317 317 4 1.99422 21.0105 31.2091 
27205 311 4 3.3739 21.9191 29.6521 
27316 317 4 3.02729 21.0008 31.2753 
27257 314 4 3.08855 20.977 31.27 
27255 314 4 1.14926 21.4562 31.3664 
27249 314 4 1.84162 22.1101 31.6714 
27309 317 4 1.78528 22.1413 31.671 
27315 317 4 3.91356 21.4697 31.5331 
27250 314 4 2.81126 21.8705 31.6231 
27308 317 4 2.75335 21.8937 31.6327 
27258 314 4 3.97381 21.4556 31.5128 
27314 317 4 4.41555 22.2914 31.9133 
27259 314 4 4.47326 22.2848 31.8798 
27194 311 4 1.26389 22.6434 29.8037 
27195 311 4 2.22554 22.3739 29.7535 
27193 311 4 1.01867 23.5712 30.0849 
27191 311 4 1.98032 23.3016 30.0347 
27196 311 4 2.94197 23.0321 29.9846 
27206 311 4 3.90363 22.7626 29.9344 
27197 311 4 2.69676 23.9599 30.2658 
27207 311 4 3.91801 23.7505 30.2436 
27192 311 4 1.7351 24.2294 30.3159 
27198 311 4 1.48989 25.1572 30.5971 
27209 311 4 2.52444 25.133 30.6262 
27208 311 4 3.41319 24.6181 30.4968 
27321 317 4 1.04526 24.1034 32.4469 
27310 317 4 1.51134 23.0342 32.0283 
27254 314 4 1.56433 23.0035 32.0246 
27253 314 4 2.25668 23.6574 32.3295 
27311 317 4 2.20547 23.6794 32.3473 
27264 314 4 1.09413 24.0723 32.4398 
27251 314 4 3.50362 22.5244 31.9281 
27307 317 4 3.44748 22.539 31.9516 
27248 314 4 2.53397 22.764 31.9763 
27305 317 4 2.47941 22.7866 31.99 
27252 314 4 3.22633 23.4179 32.2813 
27306 317 4 3.17354 23.4318 32.309 
27312 317 4 3.86767 24.0771 32.6279 
27261 314 4 3.91868 24.0718 32.5862 
27313 317 4 4.39875 23.2457 32.314 
27260 314 4 4.45308 23.2424 32.2727 
27263 314 4 1.97939 24.5509 32.6827 
27322 317 4 1.93153 24.5723 32.7046 
27262 314 4 3.01325 24.5507 32.7362 
27323 317 4 2.9646 24.5626 32.7709 
27882 347 4 1.36419 28.8473 2.01916 
27876 347 4 0.654638 29.5446 1.91814 
27893 347 4 1.64698 29.3991 1.19019 
27881 347 4 0.709411 30.2094 1.17317 
27753 340 4 5.51213 32.0977 1.151 
27733 339 4 5.51832 32.1108 1.19969 
27745 340 4 5.82777 32.9446 0.723048 
27883 347 4 0.70116 28.6691 2.79399 
27011 301 4 0.74671 28.4679 30.5178 
27942 350 4 0.751793 28.4081 30.4986 
27892 347 4 1.47374 30.1768 33.0803 
27891 347 4 0.8909 30.972 32.7644 
27725 339 4 5.47653 33.0588 32.9536 
27732 339 4 4.81075 32.3159 33.0234 
27751 340 4 4.44299 32.935 32.2338 
27731 339 4 4.45997 32.9191 32.2587 
27752 340 4 4.7972 32.3191 32.9868 
27756 340 4 7.74241 1.25141 1.49627 
27736 339 4 7.72463 1.29335 1.5551 
27746 340 4 6.67797 0.821727 1.02919 
27727 339 4 6.93347 1.27195 0.943922 
27737 339 4 7.82463 2.13302 0.957863 
27757 340 4 7.84382 2.09678 0.907381 
27847 345 4 6.3502 4.61371 2.00912 
27161 309 4 6.37814 4.5703 2.06539 
27163 309 4 6.46496 3.03996 3.35001 
27845 345 4 6.47197 3.0787 3.2853 
27846 345 4 6.64572 3.93941 2.73693 
27162 309 4 6.65577 3.89633 2.80052 
27587 331 4 11.3073 5.94173 4.21551 
27485 326 4 11.3104 6.01303 4.28425 
27428 323 4 11.1532 1.08518 11.8289 
27656 335 4 11.179 1.08641 11.7225 
27747 340 4 6.99361 1.66858 33.1523 
27723 339 4 6.1423 1.25056 32.8838 
27748 340 4 6.45905 2.08723 32.4182 
27742 340 4 6.14341 1.24038 32.8461 
27728 339 4 6.80808 1.99339 32.814 
27738 339 4 7.47385 2.73623 32.7442 
27758 340 4 7.48961 2.71268 32.7055 
27759 340 4 6.77469 2.93408 31.9902 
27739 339 4 6.76629 2.94136 32.0169 
27478 326 4 11.0456 6.90418 3.91585 
27477 326 4 10.1217 7.25436 4.06972 
27577 331 4 10.5607 6.91078 4.01729 
27572 331 4 9.88189 7.63724 3.91039 
27476 326 4 10.7809 7.79532 3.54745 
27571 331 4 10.8011 7.75249 3.53388 
27579 331 4 8.95588 8.45825 3.84521 
27493 326 4 8.93307 8.49568 3.8552 
27580 331 4 9.44347 9.2054 3.32009 
27492 326 4 9.40837 9.22867 3.29974 
27480 326 4 11.4401 8.33628 3.02518 
27582 331 4 11.2818 9.4359 2.56707 
27490 326 4 11.2364 9.44897 2.51899 
27482 326 4 9.85699 8.1455 3.70133 
27573 331 4 10.1223 8.47894 3.42699 
27574 331 4 11.0415 8.59419 3.05048 
27481 326 4 10.5162 8.68646 3.17905 
27491 326 4 10.2514 9.5776 2.81065 
27581 331 4 10.2948 9.56325 2.85226 
27578 331 4 8.96271 7.52199 4.28691 
27494 326 4 8.95289 7.57502 4.3282 
27589 331 4 9.46212 6.64749 4.52683 
27483 326 4 9.46253 6.7134 4.592 
27588 331 4 10.3203 6.06907 4.5007 
27484 326 4 10.3254 6.14167 4.57591 
27180 310 4 6.73386 7.15834 12.6501 
27173 310 4 6.08422 8.19515 12.847 
27181 310 4 7.51694 7.3357 13.3036 
27174 310 4 6.92184 8.13467 13.3898 
27175 310 4 7.16436 8.87316 14.0189 
27172 310 4 6.32674 8.93364 13.4761 
27182 310 4 7.9811 7.94123 14.0033 
27183 310 4 8.00198 8.81268 14.5617 
27176 310 4 6.56926 9.67213 14.1052 
27185 310 4 6.81178 10.4106 14.7342 
27184 310 4 7.57398 9.71654 14.8293 
27369 320 4 6.57685 13.935 2.27213 
27371 320 4 8.12444 13.1253 3.24633 
27370 320 4 7.36406 13.3352 2.5759 
27363 320 4 6.9204 14.3627 3.10821 
27362 320 4 7.26396 14.7903 3.9443 
27364 320 4 7.6942 13.9578 3.59531 
27372 320 4 8.65426 13.3615 4.10378 
27368 320 4 6.49016 15.1952 3.4572 
27365 320 4 8.03775 14.3855 4.4314 
27373 320 4 8.81155 13.9806 4.9185 
27374 320 4 8.55416 14.8166 5.47218 
27366 320 4 7.60751 15.2179 4.78038 
27367 320 4 6.83371 15.6228 4.29328 
27377 320 4 6.40347 16.4553 4.64227 
27376 320 4 7.16386 16.2454 5.3127 
27375 320 4 7.95106 15.6456 5.61647 
27408 322 4 7.84342 16.4574 13.0922 
27407 322 4 8.60166 16.2419 13.7633 
27418 322 4 9.16001 16.4962 14.5971 
27901 348 4 7.61862 16.0982 27.5389 
27895 348 4 8.03545 16.7395 28.183 
27902 348 4 8.27202 15.5257 28.102 
27896 348 4 8.713 16.4156 28.8433 
27903 348 4 8.97371 15.4503 28.8594 
27904 348 4 9.53569 15.8922 29.6081 
27905 348 4 9.80737 16.7329 30.1476 
27410 322 4 6.53903 17.9564 12.8658 
27409 322 4 7.08844 17.085 12.7637 
27402 322 4 7.47203 17.5401 13.5672 
27403 322 4 7.09902 18.4168 13.871 
27400 322 4 7.85563 17.9952 14.3708 
27406 322 4 8.61224 17.5737 14.8705 
27401 322 4 8.22865 17.1186 14.067 
27925 349 4 10.8635 18.4224 14.4387 
27350 319 4 10.8848 18.4313 14.4124 
27404 322 4 7.48261 18.8719 14.6745 
27411 322 4 6.3424 18.8383 13.3712 
27412 322 4 6.55125 19.4943 14.1444 
27413 322 4 7.10959 19.7486 14.9782 
27352 319 4 10.9938 20.4218 14.2523 
27927 349 4 10.9905 20.4095 14.2508 
27926 349 4 10.6764 19.4406 14.4362 
27351 319 4 10.6884 19.4476 14.4241 
27417 322 4 9.36885 17.1522 15.3703 
27405 322 4 8.23922 18.4504 15.1743 
27416 322 4 9.17223 18.034 15.8757 
27415 322 4 8.62282 18.9055 15.9778 
27414 322 4 7.86784 19.5331 15.6493 
27911 348 4 7.09719 18.0287 27.5066 
27912 348 4 7.18861 17.0143 27.321 
27900 348 4 7.77474 17.7047 28.1669 
27899 348 4 8.19157 18.3461 28.811 
27894 348 4 8.45228 17.3808 28.8271 
27897 348 4 9.12983 17.0569 29.4874 
27898 348 4 8.86911 18.0221 29.4713 
27910 348 4 7.36888 18.8694 28.0461 
27909 348 4 7.93085 19.3113 28.7949 
27908 348 4 8.63255 19.2359 29.5523 
27907 348 4 9.28594 18.6634 30.1154 
27906 348 4 9.71596 17.7473 30.3333 
27755 340 4 7.21254 32.9541 1.7633 
27735 339 4 7.20065 32.9933 1.8248 
27754 340 4 6.3962 32.3301 1.63692 
27734 339 4 6.39308 32.3587 1.69471 
27726 339 4 6.26769 33.0802 1.01373 
27433 323 4 10.5683 30.9051 9.15947 
27663 335 4 10.5838 30.8286 9.13728 
27432 323 4 11.2042 31.6971 8.95904 
27664 335 4 11.2171 31.6154 8.91016 
27435 323 4 9.44545 30.3529 10.7196 
27661 335 4 9.47084 30.3204 10.7193 
27424 323 4 10.2317 31.2189 10.3101 
27662 335 4 9.94464 30.3546 9.79947 
27434 323 4 9.92458 30.4131 9.80388 
27652 335 4 10.2532 31.1753 10.2802 
27648 335 4 11.1981 32.6265 10.3163 
27653 335 4 10.8895 31.8057 9.83557 
27422 323 4 11.1787 32.6666 10.394 
27651 335 4 9.9256 31.3656 11.2056 
27649 335 4 10.8704 32.8167 11.2417 
27423 323 4 10.8715 31.8609 9.88772 
27419 323 4 10.5389 32.0247 10.8164 
27425 323 4 9.89909 31.3827 11.2388 
27421 323 4 10.846 32.8304 11.3227 
27647 335 4 10.5618 31.996 10.761 
27436 323 4 9.2593 30.7407 11.6613 
27660 335 4 9.28937 30.7352 11.6503 
27437 323 4 9.41601 31.4725 12.3765 
27659 335 4 9.44885 31.4878 12.343 
27426 323 4 9.8736 32.3522 12.6738 
27658 335 4 9.90656 32.3766 12.6118 
27420 323 4 10.2062 32.1885 11.7451 
27650 335 4 10.2342 32.1863 11.6864 
27657 335 4 10.5398 33.1634 12.3847 
27427 323 4 10.5095 33.1442 12.4733 
27654 335 4 11.8343 0.705827 9.87168 
27430 323 4 11.8185 0.757591 9.97156 
27429 323 4 11.6323 1.14536 10.9132 
27655 335 4 11.6528 1.12061 10.8027 
27065 304 4 16.7041 3.6782 27.4486 
27046 303 4 16.6938 3.79556 27.3542 
27479 326 4 11.7048 7.44514 3.39358 
27486 326 4 12.1535 6.36196 3.79516 
27585 331 4 12.6463 7.04672 3.22256 
27487 326 4 12.6288 7.09496 3.23971 
27586 331 4 12.1587 6.29957 3.74768 
27576 331 4 11.4799 7.02603 3.64078 
27489 326 4 12.0993 8.87724 2.50291 
27583 331 4 12.14 8.85748 2.54094 
27488 326 4 12.6089 8.01561 2.76671 
27584 331 4 12.6394 7.98298 2.78086 
27575 331 4 11.7203 7.86773 3.15737 
27718 338 4 16.355 10.8462 16.1344 
27717 338 4 16.8532 9.94661 16.0152 
27709 338 4 16.7404 11.1261 17.2785 
27719 338 4 16.1249 11.674 16.7119 
27721 338 4 16.6275 12.3056 18.5417 
27720 338 4 16.2247 12.2082 17.5931 
27299 316 4 16.7036 15.0567 18.1605 
27223 312 4 16.6855 15.0477 18.1665 
27242 313 4 16.6992 15.0583 18.0828 
27358 319 4 14.1281 18.1584 13.2266 
27921 349 4 14.1037 18.1035 13.256 
27357 319 4 14.4334 19.1325 13.0548 
27920 349 4 14.4178 19.0723 13.0706 
27356 319 4 14.237 20.1489 13.0665 
27931 349 4 14.2307 20.0905 13.0682 
27930 349 4 13.5925 20.8852 13.2493 
27355 319 4 13.5915 20.9352 13.2585 
27361 319 4 11.5303 17.645 14.2204 
27915 349 4 12.9598 18.35 13.6641 
27916 349 4 12.0244 18.4421 14.0055 
27349 319 4 12.5064 18.2948 13.8195 
27923 349 4 12.42 17.2694 13.9413 
27360 319 4 12.452 17.2996 13.8995 
27924 349 4 11.5017 17.6277 14.2575 
27922 349 4 13.3724 17.4436 13.5747 
27359 319 4 13.4028 17.4875 13.5358 
27344 319 4 11.7229 18.8607 14.0759 
27345 319 4 11.7773 19.8559 13.9959 
27913 349 4 12.5471 19.2565 13.7534 
27343 319 4 12.5609 19.2901 13.7394 
27919 349 4 13.0698 20.0708 13.5014 
27346 319 4 12.6154 20.2854 13.6594 
27918 349 4 12.1344 20.1629 13.8428 
27917 349 4 11.6117 19.3485 14.0948 
27348 319 4 13.3445 18.7242 13.483 
27347 319 4 13.399 19.7195 13.403 
27914 349 4 13.4824 19.1644 13.412 
27353 319 4 11.719 21.0927 13.9431 
27928 349 4 11.7218 21.0694 13.9322 
27354 319 4 12.6699 21.2806 13.5793 
27929 349 4 12.6741 21.2435 13.5656 
27862 346 4 12.9469 18.5339 16.7283 
27872 346 4 13.4561 17.4091 16.622 
27120 307 4 13.4168 18.4246 16.5604 
27861 346 4 13.8839 18.5466 16.3792 
27871 346 4 14.3834 17.689 16.2568 
27132 307 4 15.0459 18.4361 15.9724 
27130 307 4 13.4496 17.4278 16.6319 
27870 346 4 15.0431 18.4284 15.9573 
27131 307 4 14.3814 17.7015 16.2733 
27119 307 4 12.5858 18.9173 16.8187 
27857 346 4 12.4474 19.3915 16.8507 
27118 307 4 12.553 19.9142 16.7472 
27858 346 4 12.8848 20.2617 16.624 
27121 307 4 14.2149 18.9288 16.2307 
27115 307 4 13.3839 19.4215 16.4889 
27856 346 4 13.3844 19.4041 16.5016 
27117 307 4 13.3511 20.4184 16.4174 
27859 346 4 13.8218 20.2743 16.275 
27122 307 4 14.9802 20.4299 15.8294 
27860 346 4 14.3214 19.4167 16.1526 
27116 307 4 14.1821 19.9257 16.1592 
27868 346 4 14.9714 20.4235 15.8369 
27869 346 4 15.2583 19.4293 15.8035 
27133 307 4 15.265 19.4348 15.81 
27125 307 4 12.3865 21.1415 16.7046 
27865 346 4 12.3853 21.1193 16.7465 
27867 346 4 14.2593 21.1445 16.0483 
27124 307 4 13.3183 21.4152 16.346 
27866 346 4 13.3127 21.3991 16.3813 
27123 307 4 14.2676 21.1548 16.0256 
27331 318 4 16.3959 21.8408 16.7928 
27873 346 4 12.5095 17.6638 16.9549 
27129 307 4 12.5003 17.6882 16.9522 
27128 307 4 11.7877 18.4131 17.1484 
27874 346 4 11.7973 18.3848 17.1664 
27126 307 4 11.722 20.4069 17.0055 
27863 346 4 11.5104 19.3789 17.1998 
27127 307 4 11.5028 19.4082 17.1679 
27864 346 4 11.7256 20.3798 17.046 
27325 318 4 16.7151 22.77 16.9784 
27330 318 4 16.0629 23.4781 17.2489 
27341 318 4 15.0914 23.2569 17.3337 
27342 318 4 15.544 22.3708 17.0476 
27340 318 4 15.1594 24.2615 17.5743 
27329 318 4 16.3821 24.4074 17.4346 
27339 318 4 15.7299 25.1154 17.705 
27338 318 4 16.6498 25.5899 17.6908 
27394 321 4 13.2467 29.1362 9.14187 
27395 321 4 13.7934 30.012 9.06612 
27396 321 4 14.1199 30.9036 9.47866 
27665 335 4 11.6748 32.5042 9.17897 
27431 323 4 11.6618 32.5768 9.25628 
27393 321 4 12.6263 28.5108 9.6856 
27392 321 4 12.0983 28.3034 10.5516 
27384 321 4 12.5349 29.1871 10.72 
27385 321 4 13.1091 29.6035 10.0151 
27381 321 4 12.9715 30.0708 10.8884 
27386 321 4 13.5457 30.4872 10.1835 
27387 321 4 13.4081 30.9545 11.0568 
27397 321 4 14.1387 31.5721 10.2689 
27398 321 4 13.8447 31.8383 11.2252 
27390 321 4 11.8231 29.238 12.2982 
27391 321 4 11.8044 28.5696 11.5079 
27382 321 4 12.8339 30.5382 11.7617 
27389 321 4 12.1496 30.1296 12.7107 
27388 321 4 12.6963 31.0055 12.635 
27383 321 4 12.3973 29.6544 11.5933 
27399 321 4 13.3168 31.6309 12.0912 
27054 303 4 19.6896 4.13168 25.648 
27073 304 4 19.6209 4.13098 25.6357 
27074 304 4 18.6513 4.48641 25.5632 
27075 304 4 17.68 4.52083 25.9197 
27056 303 4 17.7528 4.58597 25.853 
27055 303 4 18.7352 4.51624 25.5341 
27070 304 4 20.3227 2.35171 27.7192 
27040 303 4 17.6622 3.56842 27.2517 
27059 304 4 17.6746 3.48327 27.3065 
27045 303 4 18.1917 3.96362 26.5011 
27064 304 4 18.1625 3.90459 26.5421 
27039 303 4 18.6306 3.34128 27.1492 
27058 304 4 18.645 3.28835 27.1645 
27076 304 4 16.9673 4.225 26.6098 
27063 304 4 19.1329 3.70967 26.4001 
27044 303 4 19.1601 3.73648 26.3986 
27062 304 4 19.6155 3.09343 27.0225 
27043 303 4 19.5991 3.11413 27.0466 
27072 304 4 20.329 3.54977 26.1178 
27053 303 4 20.3603 3.53533 26.1641 
27052 303 4 20.5675 2.88699 26.9441 
27071 304 4 20.5859 2.89851 26.8805 
27057 303 4 17.0056 4.32218 26.5192 
27068 304 4 18.6387 2.09029 28.7659 
27049 303 4 18.526 2.16631 28.7642 
27069 304 4 19.61 2.05588 28.4093 
27050 303 4 19.5085 2.09659 28.4453 
27051 303 4 20.2557 2.36037 27.7791 
27048 303 4 17.5716 2.55087 28.6503 
27067 304 4 17.6691 2.44572 28.6934 
27060 304 4 18.1571 2.86704 27.9289 
27041 303 4 18.1011 2.94608 27.8997 
27066 304 4 16.961 3.02694 28.2112 
27047 303 4 16.901 3.14722 28.1342 
27061 304 4 19.1275 2.67211 27.7869 
27042 303 4 19.0696 2.71893 27.7972 
27716 338 4 17.486 9.21621 16.3863 
27715 338 4 18.084 8.85075 17.1483 
27714 338 4 18.4868 8.94814 18.0969 
27707 338 4 17.7199 9.71446 17.4966 
27704 338 4 17.3558 10.5782 17.845 
27708 338 4 17.1045 10.2624 16.9301 
27706 338 4 17.9712 10.0302 18.4115 
27710 338 4 16.9917 11.4419 18.1934 
27713 338 4 18.5866 9.4823 18.9781 
27711 338 4 17.8584 11.2097 19.6748 
27705 338 4 17.6071 10.8939 18.7599 
27712 338 4 18.3566 10.3101 19.5556 
27301 316 4 17.6622 14.9698 16.4075 
27225 312 4 17.6093 14.967 16.3946 
27244 313 4 17.6758 14.9266 16.3426 
27226 312 4 18.5897 14.8458 16.0851 
27245 313 4 18.6629 14.7819 16.0662 
27302 316 4 18.6465 14.8326 16.1174 
27303 316 4 19.6401 14.6771 16.3628 
27227 312 4 19.5909 14.7098 16.3108 
27246 313 4 19.6539 14.6324 16.3258 
27233 313 4 17.6882 14.9112 18.0744 
27290 316 4 17.6925 14.9103 18.1382 
27291 316 4 18.1718 14.8669 17.2617 
27214 312 4 17.6763 14.9191 18.1246 
27234 313 4 18.1765 14.8453 17.2043 
27215 312 4 18.1382 14.8788 17.2387 
27210 312 4 18.667 14.7905 18.0827 
27229 313 4 18.6773 14.7641 18.066 
27286 316 4 18.6814 14.764 18.1158 
27300 316 4 16.9511 15.0518 17.1553 
27243 313 4 16.957 15.0277 17.0807 
27224 312 4 16.9123 15.0409 17.1565 
27211 312 4 19.6578 14.662 18.0408 
27287 316 4 19.6704 14.6176 18.0935 
27230 313 4 19.6663 14.617 18.0576 
27235 313 4 19.1656 14.6983 17.1959 
27292 316 4 19.1608 14.7205 17.2393 
27216 312 4 19.129 14.7502 17.1968 
27247 313 4 20.3832 14.5183 17.0516 
27228 312 4 20.3445 14.5955 17.0113 
27304 316 4 20.3769 14.5448 17.0779 
27293 316 4 20.6593 14.4712 18.0712 
27236 313 4 20.6554 14.47 18.0492 
27217 312 4 20.6486 14.5334 17.9989 
27722 338 4 17.2255 11.9401 19.3037 
27289 316 4 18.2021 14.8074 18.9924 
27240 313 4 17.7007 14.8958 19.8063 
27297 316 4 17.7228 14.8509 19.8689 
27221 312 4 17.7432 14.8713 19.8547 
27232 313 4 18.189 14.8299 18.9362 
27213 312 4 18.2051 14.8309 18.9687 
27222 312 4 16.9896 14.9856 19.1542 
27239 313 4 18.6916 14.7463 20.0658 
27298 316 4 16.986 14.9832 19.1538 
27241 313 4 16.9714 15.01 19.0805 
27212 312 4 19.1959 14.7023 18.9268 
27288 316 4 19.1911 14.661 18.97 
27231 313 4 19.178 14.6829 18.9278 
27220 312 4 18.7444 14.7353 20.0804 
27296 316 4 18.7164 14.6953 20.1143 
27238 313 4 19.6788 14.6016 19.7895 
27295 316 4 19.7007 14.5581 19.8242 
27219 312 4 19.7248 14.6141 19.7709 
27218 312 4 20.4218 14.5402 19.009 
27237 313 4 20.3976 14.5005 19.0514 
27294 316 4 20.4118 14.4761 19.0764 
27466 325 4 22.2292 18.8169 9.87632 
27467 325 4 21.321 18.7398 10.3671 
27468 325 4 20.7454 18.8831 11.2156 
27460 325 4 21.6539 19.2229 11.4587 
27461 325 4 21.8205 19.5959 12.3715 
27469 325 4 20.6566 19.2086 12.1943 
27470 325 4 21.0786 19.629 13.0411 
27471 325 4 21.8981 20.0316 13.529 
27333 318 4 18.3389 22.2832 16.6232 
27332 318 4 17.4189 21.8087 16.6374 
27522 328 4 20.8514 25.1232 0.651354 
27541 329 4 20.8514 25.1554 0.660372 
27326 318 4 17.6866 22.9912 16.8937 
27334 318 4 18.9093 23.1371 16.7539 
27324 318 4 17.0344 23.6993 17.1641 
27327 318 4 18.0059 23.9205 17.0793 
27337 318 4 17.6729 25.5578 17.5355 
27336 318 4 18.5248 25.0278 17.2806 
27328 318 4 17.3536 24.6286 17.3498 
27335 318 4 18.9774 24.1417 16.9946 
27547 329 4 19.9827 24.4981 29.3628 
27528 328 4 19.993 24.4407 29.3558 
27548 329 4 20.6477 23.7473 29.6194 
27529 328 4 20.6567 23.6912 29.6193 
27531 328 4 21.6346 23.1915 31.2907 
27549 329 4 21.2509 23.2858 30.3228 
27530 328 4 21.2576 23.2339 30.3275 
27539 329 4 21.0239 24.032 31.2859 
27550 329 4 21.6307 23.2372 31.2847 
27520 328 4 21.0284 23.9867 31.2849 
27546 329 4 19.4341 25.3369 29.6218 
27518 328 4 19.9332 25.0318 30.4434 
27537 329 4 19.9255 25.0818 30.4544 
27527 328 4 19.4443 25.2816 29.6077 
27514 328 4 20.4222 24.7819 31.2791 
27533 329 4 20.417 24.8268 31.2871 
27517 328 4 19.816 25.5772 31.2733 
27536 329 4 19.8102 25.6216 31.2883 
27538 329 4 20.5324 24.287 30.4532 
27519 328 4 20.5394 24.2366 30.4492 
27526 328 4 19.1576 25.9887 30.3074 
27545 329 4 19.1488 26.0391 30.327 
27544 329 4 19.2034 26.4164 31.2895 
27525 328 4 19.2098 26.3724 31.2675 
27532 328 4 21.6868 23.5752 32.2508 
27551 329 4 21.6853 23.6145 32.2471 
27542 329 4 20.1864 25.9062 32.9548 
27523 328 4 20.1877 25.8727 32.9389 
27516 328 4 20.305 25.3273 32.109 
27535 329 4 20.3017 25.3665 32.121 
27521 328 4 21.4002 24.2822 32.9505 
27515 328 4 20.9112 24.5321 32.1148 
27540 329 4 21.4 24.3166 32.9524 
27534 329 4 20.9085 24.5717 32.1197 
27524 328 4 19.5868 26.3299 32.2307 
27543 329 4 19.5832 26.3677 32.2514 
27828 344 4 25.6554 3.90095 1.93765 
27771 341 4 25.6774 4.0447 1.89271 
27829 344 4 25.4452 2.89676 2.07597 
27772 341 4 25.4803 3.03269 1.98606 
27827 344 4 26.1973 4.74641 2.18918 
27770 341 4 26.2013 4.88708 2.18867 
27773 341 4 25.6628 2.12222 2.44372 
27830 344 4 25.6229 2.00292 2.56707 
27143 308 4 24.2696 2.40442 3.91443 
27678 336 4 24.2795 2.42149 3.83885 
27832 344 4 26.8607 1.41056 4.02199 
27774 341 4 26.1761 1.55725 3.14304 
27831 344 4 26.141 1.45893 3.27937 
27775 341 4 26.8827 1.48917 3.89666 
27822 344 4 26.5171 2.38376 3.33597 
27142 308 4 24.0379 3.2965 3.44299 
27677 336 4 24.0694 3.31713 3.36405 
27669 336 4 24.8032 3.53176 4.00852 
27135 308 4 24.8749 4.02519 3.99454 
27767 341 4 27.6057 3.60112 4.02544 
27766 341 4 27.2451 2.67392 3.92414 
27765 341 4 26.5367 2.48445 3.24435 
27823 344 4 27.2411 2.58967 3.99427 
27764 341 4 26.1887 3.22217 2.66586 
27821 344 4 26.1692 3.10267 2.73427 
27818 344 4 26.8932 3.30859 3.39257 
27761 341 4 26.8972 3.41164 3.34565 
27763 341 4 26.5493 4.14936 2.76716 
27820 344 4 26.5452 4.0275 2.79088 
27819 344 4 27.2692 4.23341 3.44917 
27824 344 4 27.6172 3.5145 4.05087 
27141 308 4 24.209 4.30804 3.30429 
27676 336 4 24.2525 4.32778 3.23463 
27668 336 4 25.1585 4.46452 4.06911 
27152 308 4 24.7369 5.16801 3.53549 
27675 336 4 24.7799 5.18265 3.48525 
27674 336 4 25.5102 5.65268 4.04876 
27151 308 4 25.4803 5.64597 4.07464 
27762 341 4 27.2577 4.33884 3.44695 
27826 344 4 26.9257 5.20662 2.76315 
27769 341 4 26.9117 5.33412 2.79464 
27768 341 4 27.6183 5.26604 3.54826 
27825 344 4 27.6453 5.15824 3.50578 
27679 336 4 24.8265 1.88086 4.53179 
27144 308 4 24.8419 1.87083 4.59228 
27145 308 4 25.6015 1.83871 5.29492 
27680 336 4 25.564 1.8401 5.2572 
27146 308 4 26.3448 2.31667 5.83408 
27681 336 4 26.2942 2.31012 5.82071 
27833 344 4 27.589 1.87076 4.59596 
27776 341 4 27.5931 1.93621 4.50263 
27136 308 4 24.9052 3.07338 4.29961 
27670 336 4 25.1818 2.81363 4.59238 
27137 308 4 25.5712 2.79053 4.98985 
27134 308 4 25.5409 3.74234 4.68478 
27666 336 4 25.5371 3.74639 4.65298 
27671 336 4 25.9157 3.02826 5.23684 
27683 336 4 27.0048 4.17565 5.9419 
27138 308 4 26.2068 3.45949 5.37503 
27672 336 4 26.2709 3.96102 5.29744 
27148 308 4 27.0438 4.18818 5.92658 
27667 336 4 25.8923 4.67915 4.71357 
27140 308 4 25.5106 4.69415 4.37971 
27684 336 4 26.7947 5.07128 5.46711 
27139 308 4 26.1765 4.4113 5.06996 
27150 308 4 26.2399 5.61385 4.77728 
27673 336 4 26.2476 5.61191 4.77417 
27149 308 4 26.8122 5.08027 5.45514 
27682 336 4 26.8216 3.16499 6.07132 
27147 308 4 26.8728 3.17664 6.06528 
27032 302 4 27.1509 12.962 4.68501 
27034 302 4 26.0743 14.2275 5.79822 
27024 302 4 27.1794 13.6758 5.69771 
27033 302 4 26.4051 13.5651 5.07467 
27025 302 4 27.1003 14.279 6.49127 
27035 302 4 26.247 14.7717 6.66179 
27036 302 4 26.877 15.0519 7.43397 
27459 325 4 22.3958 19.1898 10.7891 
27464 325 4 24.0462 19.4965 10.3625 
27458 325 4 23.3043 19.5296 11.0322 
27465 325 4 23.2267 19.0939 9.87464 
27475 325 4 24.4681 19.9169 11.2093 
27457 325 4 22.5624 19.5627 11.7018 
27463 325 4 23.4709 19.9025 11.9449 
27462 325 4 22.729 19.9357 12.6146 
27473 325 4 23.8038 20.3857 13.0365 
27474 325 4 24.3794 20.2423 12.1881 
27472 325 4 22.8955 20.3086 13.5273 
27275 315 4 27.0581 19.4381 24.9342 
27104 306 4 27.0765 19.4491 24.9779 
27274 315 4 26.7438 19.6366 25.9004 
27276 315 4 27.7393 19.0091 24.2833 
27105 306 4 26.7576 19.651 25.9418 
27268 315 4 27.5857 19.1072 26.0057 
27098 306 4 27.6008 19.1251 26.053 
27285 315 4 26.8807 19.5514 26.9231 
27106 306 4 26.8905 19.571 26.9654 
27284 315 4 27.432 19.2053 27.7281 
27107 306 4 27.4397 19.2307 27.7743 
27445 324 4 23.4502 24.9175 7.55634 
27812 343 4 23.4317 24.8171 7.56954 
27813 343 4 24.1193 25.4351 7.10367 
27446 324 4 24.17 25.5187 7.11791 
27447 324 4 25.1235 25.9219 7.11924 
27814 343 4 25.0583 25.87 7.07426 
27448 324 4 26.0551 26.0192 7.55998 
27815 343 4 25.997 26.0054 7.48917 
27455 324 4 23.3688 23.7756 9.19621 
27810 343 4 23.4308 23.6991 9.22781 
27811 343 4 23.1797 24.1817 8.34703 
27456 324 4 23.1569 24.2795 8.31705 
27802 343 4 24.2441 24.2256 8.98017 
27439 324 4 24.2461 24.8488 8.15773 
27803 343 4 24.2445 24.7846 8.15103 
27440 324 4 25.0828 25.351 7.93918 
27804 343 4 25.0578 25.311 7.90339 
27799 343 4 25.0574 24.752 8.73252 
27438 324 4 25.0421 24.78 8.75912 
27444 324 4 24.2054 24.2778 8.97766 
27805 343 4 25.8707 25.2785 8.48488 
27441 324 4 25.8787 25.2822 8.54057 
27442 324 4 25.838 24.7113 9.36051 
27800 343 4 25.8703 24.7195 9.31401 
27801 343 4 25.057 24.193 9.56166 
27443 324 4 25.0014 24.2091 9.57905 
27817 343 4 26.9351 25.3224 9.11802 
27450 324 4 26.9272 25.2805 9.20119 
27449 324 4 26.7154 25.7844 8.32202 
27816 343 4 26.684 25.8049 8.23724 
27809 343 4 24.1178 23.4987 9.97588 
27454 324 4 24.029 23.5409 9.95825 
27808 343 4 25.0565 23.634 10.3908 
27453 324 4 24.9607 23.6381 10.399 
27452 324 4 25.9141 24.0413 10.4003 
27807 343 4 25.9955 24.069 10.3614 
27806 343 4 26.6831 24.687 9.8955 
27451 324 4 26.634 24.6425 9.9619 
27836 344 4 28.1634 4.61425 4.21807 
27834 344 4 28.1309 2.71622 4.84749 
27777 341 4 28.117 2.77859 4.79859 
27778 341 4 28.3141 3.7906 4.70524 
27835 344 4 28.3412 3.72041 4.70917 
27779 341 4 28.1316 4.70107 4.24758 
27093 305 4 32.3769 5.48046 7.30919 
27084 305 4 31.3953 3.98097 9.49721 
27078 305 4 32.2942 4.12037 9.08204 
27079 305 4 33.0972 3.6615 9.46236 
27095 305 4 31.228 4.62866 8.70712 
27094 305 4 31.5873 5.17752 7.90625 
27083 305 4 32.3902 4.71864 8.28657 
27085 305 4 32.0443 3.40798 10.0648 
27086 305 4 33.0012 3.06322 10.2578 
27637 334 4 30.8266 5.51535 11.0616 
27623 333 4 30.8526 5.46464 11.0244 
27609 333 4 32.7507 5.50828 10.3957 
27631 334 4 32.46 4.95015 11.1722 
27615 333 4 33.0058 4.86968 11.1217 
27628 334 4 32.7097 5.51851 10.3883 
27613 333 4 31.8013 5.80869 10.305 
27614 333 4 32.0564 5.17008 11.0309 
27630 334 4 31.7682 5.51693 10.725 
27564 330 4 29.6001 0.949461 12.7066 
27624 333 4 31.3621 4.83188 11.6661 
27638 334 4 31.3341 4.86041 11.6822 
27639 334 4 32.2102 4.3818 11.9562 
27625 333 4 32.2436 4.38036 11.9675 
27562 330 4 28.861 0.806585 14.5595 
27563 330 4 29.2356 1.14496 13.6556 
27621 333 4 31.3598 6.59256 9.45264 
27635 334 4 31.3261 6.65206 9.49376 
27634 334 4 32.9595 6.08686 9.60438 
27646 334 4 32.1993 6.82924 8.96664 
27620 333 4 32.2405 6.78549 8.94381 
27636 334 4 30.8236 6.17114 10.2606 
27622 333 4 30.8518 6.10909 10.2142 
27612 333 4 32.4956 6.14689 9.66978 
27629 334 4 32.0179 6.08528 9.94103 
27030 302 4 29.0303 12.521 5.20754 
27031 302 4 28.1118 12.5799 4.73364 
27023 302 4 28.0327 13.1831 5.5272 
27029 302 4 29.6603 12.8012 5.97972 
27021 302 4 28.728 13.8971 6.94379 
27026 302 4 27.8746 14.3897 7.11431 
27020 302 4 27.9537 13.7864 6.32075 
27022 302 4 28.807 13.2938 6.15024 
27027 302 4 29.5022 14.0078 7.56683 
27028 302 4 29.8331 13.3454 6.84328 
27038 302 4 28.7564 14.6108 7.9565 
27037 302 4 27.7956 14.993 7.90787 
27598 332 4 28.4307 13.5871 23.3302 
27597 332 4 29.0378 14.2881 22.87 
27591 332 4 29.4436 14.1473 23.773 
27608 332 4 29.8623 14.9137 22.8937 
27596 332 4 30.2664 14.6513 24.0355 
27607 332 4 30.6834 15.2962 23.395 
27599 332 4 28.2038 12.9984 24.151 
27600 332 4 28.4178 12.6799 25.1124 
27592 332 4 29.0266 13.5025 24.4135 
27593 332 4 29.4324 13.3616 25.3165 
27590 332 4 29.8494 14.0065 24.676 
27595 332 4 30.6722 14.5105 24.9385 
27594 332 4 30.2552 13.8656 25.579 
27605 332 4 31.495 15.0145 25.2011 
27606 332 4 31.281 15.3331 24.2396 
27601 332 4 29.0154 12.7168 25.957 
27602 332 4 29.8364 13.0992 26.4583 
27603 332 4 30.661 13.7248 26.482 
27604 332 4 31.268 14.4258 26.0219 
27277 315 4 28.6049 18.4646 24.1221 
27700 337 4 30.512 20.449 23.9679 
27504 327 4 30.4832 20.4534 23.9419 
27702 337 4 28.893 21.5543 23.5714 
27506 327 4 28.8721 21.5874 23.5982 
27701 337 4 29.7346 20.9547 23.5078 
27505 327 4 29.702 20.9753 23.5071 
27114 306 4 28.63 18.4772 24.1767 
27278 315 4 29.4229 17.9504 24.4938 
27113 306 4 29.4483 17.9677 24.5542 
27102 306 4 28.9462 18.2834 25.3592 
27270 315 4 28.9252 18.2641 25.3024 
27112 306 4 29.9975 17.6273 25.3631 
27279 315 4 29.9742 17.6044 25.2988 
27103 306 4 27.7619 19.0195 24.3318 
27097 306 4 28.103 18.8093 25.248 