ITEM: TIMESTEP
7000000
ITEM: NUMBER OF ATOMS
475
ITEM: BOX BOUNDS pp pp pp
7.1354277009520928e-01 3.3076457229894366e+01
7.1354277009520928e-01 3.3076457229894366e+01
7.1354277009520928e-01 3.3076457229894366e+01
ITEM: ATOMS id mol type x y z 
27440 324 4 5.87685 1.24198 5.09785 
27447 324 4 4.95037 0.928598 5.30644 
27445 324 4 5.97457 1.99066 6.65675 
27446 324 4 5.25504 1.44482 6.15058 
27297 316 4 4.16916 5.85947 15.1079 
27296 316 4 4.60414 5.51464 15.9819 
27294 316 4 4.28505 5.81264 17.9337 
27295 316 4 4.64656 5.4975 17.0162 
27263 314 4 1.08938 7.6219 3.21513 
27187 310 4 1.06642 7.62768 3.16974 
27264 314 4 0.888048 6.66342 3.55078 
27186 310 4 0.873137 6.67067 3.51421 
27262 314 4 0.788979 8.60149 3.06662 
27188 310 4 0.762038 8.60629 3.02295 
27298 316 4 3.45815 6.4396 14.6285 
27299 316 4 2.66165 7.09957 14.6721 
27429 323 4 5.23749 7.53883 14.9322 
27373 320 4 5.22092 7.51582 14.9587 
27372 320 4 4.41502 8.16574 14.9562 
27430 323 4 4.42724 8.18312 14.9484 
27300 316 4 1.99307 7.66255 15.227 
27291 316 4 2.38531 7.35765 16.3625 
27289 316 4 3.65411 6.29853 15.8441 
27286 316 4 3.13906 6.7376 16.5804 
27290 316 4 2.90036 6.91858 15.6263 
27288 316 4 3.89281 6.11755 16.7983 
27374 320 4 5.92567 6.96341 15.4783 
27428 323 4 5.94685 6.97753 15.4358 
27421 323 4 5.40391 7.41304 16.1539 
27365 320 4 5.03216 7.69779 15.9237 
27366 320 4 5.59191 7.26815 16.6324 
27419 323 4 4.86097 7.84855 16.872 
27362 320 4 4.8434 7.87977 16.8888 
27301 316 4 1.63155 7.9777 16.1446 
27423 323 4 4.10116 8.45135 16.6283 
27364 320 4 4.28366 8.3094 16.1801 
27371 320 4 3.72391 8.73904 15.4715 
27431 323 4 3.7332 8.73777 15.48 
27370 320 4 3.33276 9.0821 16.3666 
27432 323 4 3.34135 9.05415 16.3845 
27422 323 4 4.6441 8.01584 15.9102 
27303 316 4 2.10896 7.61572 18.0528 
27292 316 4 2.62401 7.17666 17.3166 
27304 316 4 2.81997 7.0356 18.5322 
27287 316 4 3.37776 6.55661 17.5345 
27293 316 4 3.61647 6.37563 18.4886 
27425 323 4 5.07784 7.68127 17.8338 
27367 320 4 5.40315 7.45013 17.5974 
27420 323 4 5.62078 7.24576 17.1157 
27377 320 4 5.9629 7.02049 18.3061 
27437 323 4 5.98874 6.95934 18.264 
27302 316 4 1.67398 7.96056 17.1789 
27369 320 4 3.34639 9.10299 17.4016 
27433 323 4 3.35668 9.04749 17.4197 
27363 320 4 4.0949 8.49138 17.1452 
27380 320 4 3.76114 8.79612 18.2992 
27434 323 4 3.77508 8.71958 18.3081 
27368 320 4 4.65465 8.06174 17.8538 
27424 323 4 4.31803 8.28407 17.5901 
27436 323 4 5.2947 7.51398 18.7956 
27378 320 4 5.27179 7.59379 18.8214 
27379 320 4 4.46589 8.24372 18.8189 
27435 323 4 4.48445 8.15828 18.8117 
27240 313 4 5.51788 26.4848 0.838053 
27239 313 4 5.52575 25.9997 1.75265 
27126 307 4 5.56144 25.9746 1.82775 
27125 307 4 5.52834 26.4408 0.90397 
27238 313 4 5.91123 25.8927 2.70756 
27127 307 4 5.96633 25.8934 2.77715 
27335 318 4 1.32308 23.8643 27.1766 
27334 318 4 1.15106 22.9428 27.6161 
27336 318 4 1.06833 24.8601 27.0526 
27241 313 4 5.88971 27.218 32.5717 
27124 307 4 5.87591 27.1673 32.6163 
27449 324 4 5.77912 32.8562 3.53895 
27448 324 4 5.1422 32.9432 4.35052 
27451 324 4 7.63208 1.12007 3.12178 
27441 324 4 6.29122 1.02434 4.21411 
27442 324 4 7.2177 1.33772 4.00552 
27452 324 4 8.35161 1.66592 3.62795 
27439 324 4 6.38895 1.77301 5.77301 
27438 324 4 6.80333 1.55537 4.88927 
27443 324 4 7.7298 1.86875 4.68068 
27444 324 4 7.31543 2.0864 5.56442 
27453 324 4 8.65628 2.18214 4.47209 
27454 324 4 8.46446 2.53042 5.42802 
27456 324 4 6.91617 2.41987 6.68933 
27455 324 4 7.82753 2.61743 6.23958 
27427 323 4 6.36526 6.64962 16.3243 
27375 320 4 6.34042 6.65654 16.3759 
27426 323 4 6.38059 6.64296 17.3595 
27376 320 4 6.35405 6.67743 17.411 
27038 302 4 9.7718 11.0614 21.7484 
27089 305 4 9.75825 11.0917 21.7643 
27021 302 4 9.23924 11.4209 22.8082 
27081 305 4 9.24998 11.445 22.838 
27027 302 4 9.57165 10.5018 22.5961 
27090 305 4 9.58224 10.5285 22.615 
27028 302 4 9.19336 10.4348 23.5575 
27091 305 4 9.22817 10.4565 23.5852 
27029 302 4 8.7383 10.8782 24.375 
27092 305 4 8.79091 10.8949 24.415 
27036 302 4 9.48526 12.9666 21.2111 
27087 305 4 9.4478 12.9967 21.24 
27080 305 4 9.31338 12.1783 22.1609 
27026 302 4 9.3235 12.1517 22.1308 
27037 302 4 9.74017 11.9636 21.2414 
27088 305 4 9.70904 11.9951 21.261 
27086 305 4 9.04453 13.8281 21.7069 
27035 302 4 9.07535 13.8016 21.6655 
27078 305 4 8.58546 13.278 23.2839 
27025 302 4 8.99108 13.0708 22.3429 
27079 305 4 8.98112 13.0948 22.3839 
27020 302 4 8.90682 12.3399 23.0202 
27077 305 4 8.91772 12.3615 23.0609 
27024 302 4 8.57441 13.2589 23.2323 
27023 302 4 8.49015 12.528 23.9097 
27083 305 4 8.52206 12.5447 23.9609 
27022 302 4 8.82256 11.609 23.6976 
27082 305 4 8.85432 11.6282 23.7379 
27084 305 4 8.2532 14.1945 23.5069 
27033 302 4 8.242 14.1779 23.4444 
27085 305 4 8.60727 14.2665 22.5366 
27034 302 4 8.62028 14.245 22.483 
27031 302 4 8.07347 12.7162 24.7991 
27094 305 4 8.1264 12.7279 24.8609 
27030 302 4 8.32839 11.7132 24.8294 
27093 305 4 8.38764 11.7263 24.8819 
27032 302 4 8.04185 13.6184 24.2921 
27095 305 4 8.07719 13.6313 24.3576 
27219 312 4 11.2959 12.4079 26.6636 
27277 315 4 11.4278 12.369 26.6482 
27220 312 4 10.4889 12.982 26.9653 
27276 315 4 10.5944 12.8834 26.984 
27214 312 4 11.1284 15.0266 26.3243 
27274 315 4 10.0094 14.7959 26.9629 
27222 312 4 10.0249 14.9256 26.8793 
27221 312 4 10.0236 13.9035 27.0443 
27275 315 4 10.0753 13.7717 27.0992 
27213 312 4 10.8941 14.0911 26.5891 
27268 315 4 10.8883 14.5374 26.5618 
27269 315 4 11.1808 13.5811 26.5723 
27223 312 4 10.4923 15.7744 26.5146 
27224 312 4 11.3006 16.2224 26.0479 
27285 315 4 10.4145 15.6815 26.6117 
27273 315 4 11.4746 15.2351 26.1501 
27284 315 4 11.1821 16.1914 26.1396 
27117 307 4 6.41244 27.2896 1.08836 
27229 313 4 6.93498 27.411 1.9031 
27231 313 4 6.4231 26.6518 2.30533 
27118 307 4 6.25521 26.6932 1.87556 
27232 313 4 6.22643 26.9479 1.37057 
27115 307 4 6.94898 27.4119 1.92338 
27236 313 4 7.32833 26.8189 3.7726 
27120 307 4 7.48552 27.5342 2.75839 
27128 307 4 6.63452 26.2191 3.49778 
27129 307 4 7.38697 26.8644 3.79655 
27119 307 4 6.79175 26.8155 2.71058 
27230 313 4 7.13166 27.1149 2.83785 
27237 313 4 6.57102 26.1926 3.44691 
27130 307 4 8.02206 27.6564 3.59341 
27247 313 4 7.98025 27.6039 3.59736 
27121 307 4 7.64275 28.1305 1.97119 
27234 313 4 7.44685 28.1701 1.50086 
27116 307 4 7.10621 28.0083 1.13617 
27233 313 4 6.7383 27.707 0.968342 
27235 313 4 7.64353 27.874 2.43562 
27133 307 4 7.93163 28.9304 1.0696 
27244 313 4 7.95873 28.9292 1.09863 
27132 307 4 8.33652 28.8492 2.019 
27245 313 4 8.34421 28.8223 2.05354 
27246 313 4 8.35208 28.3371 2.96814 
27131 307 4 8.36962 28.3829 2.94278 
27450 324 4 6.69048 33.0538 3.0892 
27123 307 4 6.511 27.9593 32.4131 
27243 313 4 7.29894 28.6293 32.7222 
27122 307 4 7.26345 28.6046 32.7119 
27242 313 4 6.54163 28.003 32.3965 
27066 304 4 14.7343 11.3698 31.622 
27279 315 4 13.1197 12.8762 25.7097 
27217 312 4 13.0368 12.7832 25.7533 
27216 312 4 12.635 14.4665 25.6788 
27272 315 4 12.3534 14.9766 25.749 
27271 315 4 12.6459 14.0204 25.7596 
27280 315 4 13.5248 13.7619 25.3584 
27228 312 4 13.5042 13.632 25.3886 
27281 315 4 13.4589 14.786 25.2221 
27227 312 4 13.5055 14.6541 25.2236 
27283 315 4 12.1063 16.1887 25.6731 
27225 312 4 12.2332 16.1497 25.6043 
27226 312 4 13.0402 15.5756 25.3026 
27282 315 4 12.9397 15.6743 25.3373 
27215 312 4 11.9989 15.2142 25.8691 
27278 315 4 12.3521 12.3664 26.1818 
27218 312 4 12.2286 12.3352 26.22 
27212 312 4 11.5302 13.3434 26.3988 
27270 315 4 12.0596 13.3226 26.1712 
27211 312 4 12.4007 13.531 25.9436 
27267 315 4 11.7671 14.2789 26.1607 
27210 312 4 11.7646 14.2788 26.134 
27076 304 4 12.9414 12.2322 31.8279 
27075 304 4 12.6086 13.1703 32.1124 
27065 304 4 13.7194 11.5731 31.6484 
27059 304 4 14.1613 12.4236 31.9341 
27064 304 4 13.6059 13.2222 32.1661 
27058 304 4 14.6031 13.274 32.2198 
27060 304 4 15.1585 12.4754 31.9878 
27067 304 4 15.7139 11.6768 31.7558 
27068 304 4 16.396 12.4117 32.014 
27074 304 4 12.8102 14.1363 32.4257 
27073 304 4 13.4923 14.8712 32.6838 
27062 304 4 15.0449 14.1244 32.5055 
27063 304 4 14.0477 14.0726 32.4518 
27071 304 4 15.4868 14.9749 32.7912 
27070 304 4 16.2648 14.3158 32.6118 
27061 304 4 15.6004 13.3258 32.2735 
27069 304 4 16.5976 13.3776 32.3273 
27072 304 4 14.472 15.1781 32.8176 
27395 321 4 13.287 28.7989 5.25554 
27160 309 4 13.2894 28.8374 5.26746 
27171 309 4 12.3512 29.2192 5.48146 
27394 321 4 12.344 29.1805 5.44819 
27161 309 4 14.3207 28.9054 5.32954 
27396 321 4 14.3165 28.8676 5.34048 
27397 321 4 15.1568 29.368 5.68026 
27162 309 4 15.1685 29.405 5.65107 
27159 309 4 12.6968 30.2323 6.10602 
27393 321 4 11.7403 29.9099 5.86682 
27385 321 4 12.977 29.8297 5.86987 
27170 309 4 11.7573 29.9485 5.91421 
27154 309 4 13.4629 29.6768 5.78264 
27386 321 4 13.9633 29.6733 5.81601 
27155 309 4 14.4024 29.9606 5.97445 
27158 309 4 12.8703 31.0717 6.6212 
27392 321 4 11.6375 30.7919 6.39926 
27384 321 4 12.6238 30.6355 6.3454 
27169 309 4 11.6669 30.8299 6.44974 
27382 321 4 14.2431 31.1283 6.71322 
27387 321 4 14.5963 30.3226 6.23769 
27156 309 4 14.5759 30.8 6.48963 
27153 309 4 13.6364 30.5162 6.29782 
27381 321 4 13.61 30.479 6.29154 
27163 309 4 15.6058 30.2024 6.1459 
27399 321 4 15.4798 31.0481 6.71626 
27164 309 4 15.5155 31.0838 6.68143 
27398 321 4 15.5826 30.1661 6.18383 
27383 321 4 13.2568 31.2847 6.76708 
27168 309 4 12.1042 31.6273 6.94457 
27391 321 4 12.0633 31.59 6.90283 
27390 321 4 12.9036 32.0904 7.24261 
27167 309 4 12.9521 32.1269 7.2661 
27157 309 4 13.8099 31.3556 6.813 
27388 321 4 14.8761 31.7775 7.1349 
27165 309 4 14.9216 31.8132 7.11418 
27166 309 4 13.9833 32.195 7.32818 
27389 321 4 13.9331 32.1591 7.32755 
27145 308 4 12.2399 31.3076 27.5991 
27146 308 4 12.8845 31.9486 27.1036 
27147 308 4 13.7368 32.5363 27.0993 
27148 308 4 14.5684 32.9134 27.5872 
27144 308 4 11.9758 30.785 28.453 
27143 308 4 12.1629 30.521 29.4365 
27136 308 4 12.9113 31.1354 29.1865 
27137 308 4 12.9498 31.5287 28.2679 
27138 308 4 13.6982 32.1431 28.0179 
27134 308 4 13.6597 31.7498 28.9366 
27139 308 4 14.4082 32.3642 28.6867 
27149 308 4 15.1566 32.9786 28.4367 
27150 308 4 15.3437 32.7146 29.4202 
27142 308 4 12.7511 30.5863 30.286 
27141 308 4 13.5827 30.9633 30.7739 
27140 308 4 14.3696 31.971 29.6053 
27135 308 4 13.6212 31.3566 29.8553 
27151 308 4 15.0796 32.1921 30.2741 
27152 308 4 14.435 31.5511 30.7696 
27354 319 4 20.8827 5.15406 22.1717 
27415 322 4 20.8915 5.15904 22.1243 
27355 319 4 20.508 6.02347 21.7526 
27416 322 4 20.5415 6.05337 21.7376 
27405 322 4 20.9095 5.79822 22.8932 
27346 319 4 20.8843 5.82184 22.9161 
27404 322 4 21.2257 5.49161 23.7911 
27353 319 4 21.2582 4.64251 22.9897 
27414 322 4 21.2511 4.60724 22.9232 
27345 319 4 21.21 5.55775 23.824 
27352 319 4 21.534 4.62589 23.9875 
27413 322 4 21.5239 4.54583 23.92 
27411 322 4 21.5599 5.82419 25.4578 
27350 319 4 21.5374 5.96145 25.4763 
27351 319 4 21.6362 5.10865 24.8977 
27412 322 4 21.637 4.99127 24.8477 
27356 319 4 20.2346 7.01779 21.8448 
27417 322 4 20.295 7.05061 21.8665 
27461 325 4 22.2556 9.47845 21.6719 
27044 303 4 22.2651 9.48639 21.6646 
27469 325 4 21.7685 8.34772 21.814 
27053 303 4 21.7637 8.36095 21.7989 
27054 303 4 21.4496 9.14354 21.1982 
27470 325 4 21.4423 9.12339 21.2108 
27472 325 4 22.0681 10.9867 20.8411 
27056 303 4 22.0994 11.001 20.8407 
27471 325 4 21.552 10.0893 20.8547 
27055 303 4 21.5724 10.1099 20.8475 
27357 319 4 20.1358 7.87058 22.4234 
27418 322 4 20.2179 7.88353 22.4766 
27343 319 4 20.886 6.48962 23.6605 
27400 322 4 20.9275 6.4374 23.6621 
27347 319 4 20.5603 6.7537 22.7527 
27406 322 4 20.6112 6.744 22.7643 
27401 322 4 20.6292 7.38318 23.5332 
27348 319 4 20.562 7.42148 23.4971 
27358 319 4 20.238 8.35335 23.3336 
27407 322 4 20.331 8.32897 23.4043 
27349 319 4 20.8877 7.1574 24.405 
27402 322 4 20.9454 7.07658 24.431 
27360 319 4 20.8894 7.82518 25.1494 
27409 322 4 20.9634 7.71576 25.1999 
27361 319 4 21.264 6.95576 25.5685 
27410 322 4 21.3134 6.82143 25.5867 
27344 319 4 21.2117 6.22553 24.5684 
27403 322 4 21.2437 6.1308 24.56 
27408 322 4 20.6038 8.26756 24.4011 
27359 319 4 20.5138 8.33673 24.3313 
27106 306 4 21.8013 16.9701 5.87176 
27108 306 4 21.9189 18.2435 7.40961 
27107 306 4 21.6091 17.6877 6.59291 
27045 303 4 22.59 10.4151 21.4858 
27457 325 4 23.0688 9.83351 22.133 
27039 303 4 23.0806 9.82923 22.1309 
27040 303 4 23.4056 10.758 21.9521 
27463 325 4 23.3817 10.7652 21.9482 
27462 325 4 22.5685 10.4101 21.4871 
27460 325 4 22.7559 8.90184 22.3178 
27051 303 4 23.2719 8.08031 23.0822 
27467 325 4 23.2853 8.0919 23.0923 
27459 325 4 23.5692 9.2569 22.779 
27042 303 4 23.5712 9.24335 22.776 
27466 325 4 24.0695 8.68029 23.4249 
27050 303 4 24.0618 8.65747 23.4211 
27052 303 4 22.4307 7.97178 22.4884 
27468 325 4 22.443 7.97017 22.5027 
27043 303 4 22.7557 8.90051 22.3097 
27049 303 4 24.5888 9.5486 23.4142 
27465 325 4 24.5856 9.57769 23.4114 
27458 325 4 23.8821 10.1886 22.5941 
27041 303 4 23.8961 10.1721 22.5972 
27048 303 4 24.7117 10.5149 23.0635 
27464 325 4 24.6953 10.5436 23.0553 
27475 325 4 24.3692 11.3193 22.452 
27047 303 4 24.3975 11.2975 22.4629 
27104 306 4 23.3647 15.8106 5.41172 
27105 306 4 22.4439 16.283 5.43942 
27103 306 4 24.3171 15.6794 5.79608 
27097 306 4 23.8997 16.3817 6.37283 
27098 306 4 22.9631 16.6835 6.19449 
27113 306 4 25.3555 16.4803 7.30623 
27102 306 4 24.4189 16.7822 7.1279 
27114 306 4 25.0457 15.9245 6.48952 
27057 303 4 22.8893 11.5782 21.1796 
27046 303 4 23.7305 11.6867 21.7733 
27473 325 4 22.8524 11.5751 21.1737 
27474 325 4 23.6947 11.6968 21.7633 
27100 306 4 23.0649 17.7863 7.52631 
27101 306 4 24.0015 17.4845 7.70464 
27099 306 4 22.5457 17.3858 6.77124 
27096 306 4 23.4823 17.084 6.94957 
27109 306 4 22.6475 18.4886 8.10305 
27110 306 4 23.5998 18.3574 8.48742 
27112 306 4 25.1633 17.1979 8.02737 
27111 306 4 24.5207 17.885 8.45972 
27209 311 4 24.9631 24.8819 3.22825 
27015 301 4 24.9688 24.882 3.20846 
27208 311 4 24.5124 25.7121 2.80446 
27016 301 4 24.5262 25.7155 2.7828 
27198 311 4 25.3376 24.3914 4.05951 
27014 301 4 25.3352 24.3883 4.04147 
27018 301 4 23.875 27.4773 3.47002 
27206 311 4 23.8537 27.4703 3.49395 
27207 311 4 24.1064 26.6595 2.90172 
27017 301 4 24.1258 26.6654 2.87853 
27006 301 4 24.6051 25.9328 3.75574 
27197 311 4 24.5957 25.9308 3.77673 
27007 301 4 24.2795 26.8137 4.09935 
27196 311 4 24.2663 26.8099 4.12148 
27012 301 4 25.4931 24.8229 5.98735 
27199 311 4 25.5356 24.372 5.07553 
27013 301 4 25.5271 24.3666 5.05861 
27004 301 4 25.0886 25.4865 5.35802 
27005 301 4 25.0096 25.2692 4.38508 
27193 311 4 25.0915 25.4892 5.37653 
27192 311 4 25.0082 25.2705 4.40426 
27200 311 4 25.5041 24.8289 6.00406 
27003 301 4 24.763 26.3674 5.70163 
27194 311 4 24.7622 26.3683 5.72128 
27001 301 4 24.6841 26.1501 4.72869 
27002 301 4 24.3585 27.031 5.0723 
27191 311 4 24.6789 26.1496 4.749 
27195 311 4 24.3496 27.0286 5.09375 
27011 301 4 25.2424 25.6348 6.57884 
27201 311 4 25.2515 25.6396 6.59629 
27010 301 4 24.842 26.5847 6.67458 
27202 311 4 24.8454 26.587 6.69355 
27203 311 4 24.3948 27.4172 6.26976 
27009 301 4 24.3993 27.4182 6.24891 
27205 311 4 23.8222 27.9271 4.42248 
27019 301 4 23.841 27.9336 4.39876 
27204 311 4 24.0203 27.9077 5.4385 
27008 301 4 24.0329 27.9119 5.41591 
27265 314 4 32.6018 5.98286 3.98362 
27185 310 4 32.5969 5.99169 3.96404 
27183 310 4 30.7396 6.07232 4.70176 
27255 314 4 30.7293 6.06162 4.68202 
27184 310 4 31.6831 5.77268 4.39872 
27266 314 4 31.6788 5.76259 4.39769 
27174 310 4 30.6434 7.74862 4.27632 
27250 314 4 30.6435 7.74003 4.26272 
27249 314 4 31.1545 6.88114 4.29777 
27175 310 4 31.1558 6.89031 4.30461 
27172 310 4 31.572 7.70831 3.90746 
27248 314 4 31.5798 7.70065 3.91352 
27177 310 4 32.5007 7.66799 3.5386 
27253 314 4 32.516 7.66128 3.56433 
27254 314 4 32.0908 6.84176 3.94857 
27176 310 4 32.0845 6.85 3.93575 
27179 310 4 30.5472 9.42492 3.85088 
27259 314 4 30.5577 9.41845 3.84343 
27251 314 4 31.0687 8.55955 3.87848 
27173 310 4 31.0596 8.56661 3.87917 
27258 314 4 29.9086 8.73789 4.27627 
27180 310 4 29.908 8.74595 4.30071 
27252 314 4 32.005 8.52017 3.52928 
27178 310 4 31.9882 8.5263 3.51031 
27189 310 4 32.4045 9.34429 3.11316 
27260 314 4 31.4807 9.63872 3.42936 
27261 314 4 32.4302 9.33969 3.14503 
27190 310 4 31.4609 9.64393 3.4162 
27257 314 4 29.7072 7.77941 4.61192 
27181 310 4 29.7147 7.78893 4.64518 
27182 310 4 30.0191 6.81032 4.79197 
27256 314 4 30.0076 6.79982 4.76043 
27332 318 4 32.176 22.2244 28.9176 
27312 317 4 31.1517 26.9588 12.9948 
27323 317 4 31.338 25.9405 12.9812 
27322 317 4 31.6562 25.0807 13.4623 
27321 317 4 32.021 24.6099 14.3091 
27310 317 4 32.0825 25.5932 15.061 
27311 317 4 31.7432 25.8065 14.1448 
27307 317 4 31.578 27.4713 14.5935 
27305 317 4 31.8302 26.5323 14.8272 
27306 317 4 31.491 26.7455 13.911 
27320 317 4 32.3347 24.6542 15.2948 
27319 317 4 32.5132 25.2017 16.1552 
27308 317 4 31.9173 27.258 15.5097 
27317 317 4 32.3225 27.1241 16.6733 
27309 317 4 32.1695 26.319 15.7435 
27318 317 4 32.5088 26.1057 16.6597 
27337 318 4 32.818 25.6634 27.2774 
27327 318 4 32.8896 24.003 27.7654 
27331 318 4 31.3686 22.62 29.4309 
27325 318 4 31.7309 23.3808 28.8926 
27326 318 4 32.5273 23.2421 28.3038 
27333 318 4 32.9613 22.3426 28.2534 
27340 318 4 30.6726 25.3405 29.0922 
27329 318 4 31.6593 25.0412 28.4046 
27324 318 4 32.0933 24.1417 28.3542 
27330 318 4 31.2969 24.2804 28.9429 
27328 318 4 32.4556 24.9026 27.8158 
27339 318 4 31.2253 25.9408 28.455 
27338 318 4 32.0106 26.059 27.7907 
27342 318 4 30.7553 23.4233 29.6557 
27341 318 4 30.5006 24.4191 29.5317 
27313 317 4 31.1472 27.8628 13.4993 
27314 317 4 31.3258 28.4104 14.3597 
27316 317 4 32.0043 27.9838 16.1922 
27315 317 4 31.6395 28.4546 15.3453 
ITEM: TIMESTEP
7050000
ITEM: NUMBER OF ATOMS
475
ITEM: BOX BOUNDS pp pp pp
7.1354277009520928e-01 3.3076457229894366e+01
7.1354277009520928e-01 3.3076457229894366e+01
7.1354277009520928e-01 3.3076457229894366e+01
ITEM: ATOMS id mol type x y z 
27448 324 4 5.97115 1.04956 7.68273 
27447 324 4 5.71073 1.83776 8.30145 
27446 324 4 5.98588 2.63436 8.90278 
27298 316 4 6.06937 4.03883 16.0715 
27300 316 4 4.16808 4.5433 16.4333 
27299 316 4 5.06963 4.29495 15.989 
27422 323 4 5.81998 6.09448 16.9204 
27301 316 4 3.60628 4.71732 17.2854 
27286 316 4 5.43607 4.26592 17.955 
27291 316 4 4.52117 4.49162 17.6202 
27292 316 4 4.70439 4.4771 18.6032 
27287 316 4 5.61928 4.2514 18.938 
27302 316 4 3.53477 4.77039 18.3169 
27419 323 4 5.98403 6.07707 17.9067 
27362 320 4 5.98795 6.08273 17.9132 
27293 316 4 5.8025 4.23689 19.921 
27304 316 4 4.80276 4.49301 19.8386 
27303 316 4 3.97272 4.68829 19.2514 
27290 316 4 5.25285 4.28044 16.972 
27187 310 4 0.897575 6.4224 3.83674 
27263 314 4 0.892149 6.41428 3.85476 
27431 323 4 4.7521 6.38173 16.3608 
27371 320 4 4.76858 6.37004 16.354 
27372 320 4 5.68044 6.11204 15.9371 
27430 323 4 5.65594 6.11188 15.934 
27433 323 4 4.08842 6.6261 18.2317 
27369 320 4 4.08184 6.60658 18.2176 
27370 320 4 4.18345 6.55105 17.1887 
27368 320 4 5.64457 6.20101 18.8449 
27434 323 4 4.50643 6.53514 19.1745 
27380 320 4 4.49096 6.52174 19.1648 
27364 320 4 5.37826 6.22639 17.1336 
27423 323 4 5.08119 6.32351 17.5543 
27435 323 4 5.32035 6.32145 19.7776 
27363 320 4 5.03489 6.34466 18.0654 
27379 320 4 5.3012 6.31928 19.7767 
27424 323 4 5.24523 6.30611 18.5406 
27432 323 4 4.17835 6.56995 17.2018 
27242 313 4 6.08384 26.6393 2.069 
27126 307 4 5.60055 26.1925 4.82069 
27124 307 4 5.47384 26.2438 2.82529 
27241 313 4 5.48826 26.2533 2.82282 
27125 307 4 5.30399 26.0867 3.83442 
27240 313 4 5.31057 26.0882 3.82931 
27123 307 4 6.06461 26.6218 2.0637 
27239 313 4 5.59838 26.1881 4.8188 
27321 317 4 1.50289 23.5524 16.0053 
27320 317 4 2.12009 23.6017 16.835 
27319 317 4 2.34642 24.0047 17.7615 
27309 317 4 1.39128 24.7875 17.866 
27310 317 4 1.39071 24.2617 17.0154 
27318 317 4 2.12123 24.6534 18.5363 
27317 317 4 1.50486 25.374 18.9519 
27441 324 4 7.20344 1.17503 7.72452 
27442 324 4 8.20283 1.1907 7.69209 
27453 324 4 9.70829 1.90045 8.17176 
27452 324 4 9.43314 1.10385 7.57042 
27438 324 4 7.70951 1.8691 8.2366 
27440 324 4 6.71012 1.85343 8.26902 
27443 324 4 8.7089 1.88478 8.20418 
27444 324 4 8.21558 2.56318 8.74869 
27439 324 4 7.21619 2.5475 8.78111 
27445 324 4 6.72287 3.22591 9.32562 
27456 324 4 7.72424 3.4539 9.45665 
27454 324 4 9.44787 2.68865 8.79047 
27455 324 4 8.72165 3.25725 9.26078 
27428 323 4 7.46162 5.619 16.639 
27297 316 4 6.89942 3.84355 16.6587 
27429 323 4 6.6477 5.8327 16.0359 
27374 320 4 7.48493 5.64373 16.6615 
27373 320 4 6.67469 5.84619 16.0496 
27365 320 4 6.33132 5.96446 16.9814 
27288 316 4 6.35096 4.04022 18.2899 
27296 316 4 7.33736 3.76145 17.5932 
27295 316 4 7.26585 3.81452 18.6247 
27436 323 4 6.31211 6.04227 19.8794 
27427 323 4 7.87963 5.52805 17.5818 
27375 320 4 7.89406 5.55889 17.6088 
27366 320 4 6.941 5.82081 17.761 
27420 323 4 6.88687 5.83064 18.2592 
27421 323 4 6.72282 5.84804 17.2729 
27426 323 4 7.78971 5.5842 18.6117 
27376 320 4 7.79244 5.61442 18.6376 
27367 320 4 6.59763 5.93908 18.6927 
27425 323 4 6.14807 6.05967 18.8931 
27294 316 4 6.70406 3.98854 19.4767 
27437 323 4 7.21595 5.77242 19.4526 
27377 320 4 7.20731 5.79543 19.4723 
27378 320 4 6.29546 6.05343 19.8893 
27289 316 4 6.16774 4.05473 17.3069 
27090 305 4 9.99375 11.2515 21.3359 
27027 302 4 9.98309 11.2649 21.33 
27092 305 4 9.14613 11.3093 23.1466 
27029 302 4 9.16352 11.3417 23.1528 
27091 305 4 9.66162 11.0337 22.2921 
27028 302 4 9.66649 11.0576 22.2936 
27076 304 4 10.3721 12.1604 1.23739 
27075 304 4 10.1005 13.0096 1.76359 
27064 304 4 11.0891 13.0894 1.636 
27074 304 4 10.3586 13.9016 2.22141 
27073 304 4 11.0775 14.5973 2.48818 
27065 304 4 11.1008 11.5814 0.783812 
27088 305 4 9.82494 12.8167 20.1023 
27037 302 4 9.79056 12.8151 20.0808 
27089 305 4 10.0535 11.9041 20.5344 
27038 302 4 10.0285 11.9082 20.52 
27036 302 4 9.33301 13.7425 20.1301 
27087 305 4 9.36923 13.7448 20.1553 
27086 305 4 8.80851 14.4397 20.6793 
27035 302 4 8.77846 14.442 20.6546 
27021 302 4 9.47704 12.0784 21.6168 
27081 305 4 9.48553 12.063 21.6244 
27077 305 4 8.97732 12.8745 21.913 
27020 302 4 8.97099 12.8918 21.9037 
27080 305 4 9.40113 12.8456 21.0076 
27026 302 4 9.38078 12.8535 20.9923 
27079 305 4 8.89292 13.6571 21.2961 
27025 302 4 8.87473 13.6669 21.2791 
27024 302 4 8.46494 13.7053 22.1905 
27078 305 4 8.46911 13.686 22.2015 
27034 302 4 8.2755 14.7261 21.5137 
27085 305 4 8.29303 14.7152 21.5339 
27031 302 4 8.15142 12.9686 23.7265 
27094 305 4 8.1297 12.9323 23.7236 
27030 302 4 8.60897 12.0412 23.6773 
27093 305 4 8.58541 12.0042 23.6706 
27023 302 4 8.56121 12.9302 22.8151 
27083 305 4 8.55351 12.9034 22.8183 
27084 305 4 7.9609 14.4975 22.49 
27095 305 4 7.90111 13.8449 23.2915 
27032 302 4 7.91347 13.8755 23.2873 
27221 312 4 10.7725 12.8727 25.7373 
27275 315 4 10.8008 12.8488 25.7264 
27213 312 4 11.2056 13.7467 25.5168 
27214 312 4 10.7546 14.6045 25.7634 
27268 315 4 10.8851 14.0845 25.681 
27222 312 4 10.1178 13.5928 26.0903 
27274 315 4 10.1298 13.5579 26.0711 
27273 315 4 10.857 15.084 25.694 
27215 312 4 11.1878 15.4785 25.5429 
27224 312 4 10.0971 15.5926 26.1204 
27284 315 4 10.0735 15.557 26.0971 
27283 315 4 10.7033 16.3114 25.7713 
27225 312 4 10.7368 16.3363 25.7895 
27082 305 4 9.06172 12.0919 22.5298 
27285 315 4 9.86356 14.5492 26.2068 
27223 312 4 9.87056 14.5884 26.2305 
27033 302 4 7.95889 14.5187 22.4774 
27022 302 4 9.06726 12.1168 22.5282 
27133 307 4 7.80531 27.6031 1.9784 
27243 313 4 6.93771 27.1425 1.76985 
27122 307 4 6.91798 27.1193 1.75372 
27244 313 4 7.82109 27.6283 2.00551 
27116 307 4 6.98134 27.0937 2.75142 
27121 307 4 7.76676 27.5058 3.21334 
27234 313 4 7.43446 27.3528 2.88567 
27232 313 4 6.1792 26.5827 3.79757 
27118 307 4 6.32262 26.6303 4.28491 
27233 313 4 6.56583 26.8583 2.91741 
27229 313 4 7.04783 27.0773 3.76583 
27115 307 4 7.04469 27.068 3.74912 
27117 307 4 6.25927 26.6559 3.28721 
27120 307 4 7.83012 27.4801 4.21104 
27129 307 4 8.02478 27.5142 5.43454 
27235 313 4 7.91645 27.5718 3.73408 
27236 313 4 8.01181 27.5152 5.46265 
27230 313 4 7.52982 27.2962 4.61424 
27231 313 4 6.66119 26.8017 4.64598 
27128 307 4 7.1714 27.0167 5.74453 
27119 307 4 7.10805 27.0424 4.74682 
27127 307 4 6.28407 26.5329 5.51984 
27238 313 4 6.27456 26.5262 5.52614 
27237 313 4 7.15794 27.012 5.76181 
27245 313 4 8.49727 27.9664 2.71285 
27132 307 4 8.48883 27.9435 2.67755 
27246 313 4 8.78508 28.0663 3.70234 
27131 307 4 8.7854 28.0493 3.66383 
27247 313 4 8.60739 27.9012 4.70883 
27130 307 4 8.61554 27.8922 4.67295 
27450 324 4 7.69478 32.6472 7.01655 
27449 324 4 6.69737 32.8439 7.21243 
27451 324 4 8.69615 32.8752 7.14759 
27147 308 4 13.1327 1.46355 25.7095 
27148 308 4 14.0348 1.75987 26.1221 
27149 308 4 14.843 1.57054 26.7408 
27150 308 4 15.3407 0.9463 27.4 
27146 308 4 12.3783 0.760984 25.6137 
27139 308 4 14.2636 0.758979 26.8163 
27066 304 4 12.0913 11.4279 32.8873 
27060 304 4 12.5779 12.455 1.01852 
27061 304 4 13.0664 13.2489 1.38082 
27062 304 4 12.5663 13.963 1.87071 
27071 304 4 13.0548 14.7568 2.233 
27058 304 4 12.0778 13.1691 1.50841 
27069 304 4 14.0551 13.3286 1.25323 
27070 304 4 13.7834 14.1779 1.77942 
27072 304 4 12.0643 14.9103 2.49243 
27063 304 4 11.5776 13.8832 1.9983 
27059 304 4 11.5893 12.3753 1.14611 
27068 304 4 13.7969 12.4366 0.795405 
27277 315 4 12.5777 12.9107 24.8104 
27219 312 4 12.5407 12.905 24.8031 
27276 315 4 11.6968 12.612 25.2649 
27220 312 4 11.6593 12.6209 25.2662 
27269 315 4 11.6686 13.6115 25.2779 
27212 312 4 12.0897 13.7628 25.0497 
27270 315 4 12.424 14.1381 24.8878 
27267 315 4 11.6405 14.6111 25.2909 
27211 312 4 12.5228 14.6368 24.8291 
27210 312 4 11.6387 14.6207 25.2963 
27271 315 4 12.3959 15.1377 24.9007 
27278 315 4 13.2075 13.6651 24.4847 
27218 312 4 13.1803 13.6487 24.4721 
27217 312 4 13.4069 14.6529 24.362 
27279 315 4 13.4174 14.673 24.3749 
27216 312 4 12.0718 15.4946 25.0757 
27281 315 4 12.4802 16.3733 24.8554 
27227 312 4 12.5049 16.3686 24.8552 
27272 315 4 11.6123 15.6106 25.3038 
27226 312 4 11.6181 16.6204 25.3264 
27282 315 4 11.5842 16.6102 25.3168 
27280 315 4 13.1512 15.6643 24.5106 
27228 312 4 13.1597 15.6485 24.5022 
27067 304 4 13.0781 11.7409 32.8915 
27395 321 4 14.4254 29.7964 2.28928 
27160 309 4 14.416 29.7931 2.30852 
27396 321 4 15.1039 30.4252 1.8245 
27161 309 4 15.1016 30.4088 1.83642 
27162 309 4 15.743 31.2211 1.86087 
27397 321 4 15.7352 31.2452 1.85815 
27163 309 4 16.1683 32.0126 2.3753 
27398 321 4 16.1499 32.0366 2.38122 
27171 309 4 13.87 29.5392 3.15067 
27394 321 4 13.8813 29.5272 3.12795 
27154 309 4 14.6763 30.468 2.99904 
27385 321 4 14.4042 30.3329 3.40631 
27159 309 4 14.2732 30.429 3.91338 
27386 321 4 15.0156 30.7819 2.75459 
27170 309 4 13.6097 29.715 4.13721 
27393 321 4 13.6174 29.6898 4.1158 
27153 309 4 14.9366 31.143 3.68955 
27381 321 4 14.9272 31.1386 3.68467 
27399 321 4 16.237 32.5873 3.25355 
27155 309 4 15.3398 31.182 2.77521 
27387 321 4 15.5385 31.5876 3.03295 
27156 309 4 15.6001 31.857 3.46572 
27382 321 4 15.4502 31.9442 3.96303 
27164 309 4 16.2636 32.571 3.24189 
27157 309 4 15.1969 31.8179 4.38006 
27166 309 4 15.4573 32.4928 5.07057 
27384 321 4 14.3159 30.6895 4.3364 
27392 321 4 13.7045 30.2405 4.98813 
27169 309 4 13.705 30.2734 5.00379 
27167 309 4 14.7717 31.8772 5.54267 
27391 321 4 14.1193 31.0319 5.5112 
27168 309 4 14.1303 31.0648 5.51823 
27390 321 4 14.7505 31.8519 5.54485 
27383 321 4 14.8389 31.4952 4.61476 
27158 309 4 14.5335 31.1039 4.60389 
27165 309 4 16.0033 32.7468 4.22843 
27388 321 4 15.9732 32.7499 4.2414 
27389 321 4 15.4291 32.4807 5.08007 
27140 308 4 14.5393 32.3638 27.4074 
27138 308 4 13.4084 33.0684 26.3006 
27142 308 4 13.3334 30.4979 27.6613 
27135 308 4 13.9598 31.5523 27.4828 
27143 308 4 12.5252 30.6872 27.0426 
27144 308 4 12.0276 31.3114 26.3834 
27136 308 4 13.1047 31.4988 26.9671 
27145 308 4 11.9738 32.2033 25.8604 
27137 308 4 12.8289 32.2568 26.376 
27134 308 4 13.6841 32.3103 26.8917 
27141 308 4 14.2356 30.7942 28.0739 
27152 308 4 14.9899 31.4968 28.1697 
27151 308 4 15.3944 32.4173 27.923 
27405 322 4 20.7166 4.96882 22.153 
27346 319 4 20.7132 4.97605 22.1645 
27415 322 4 21.1783 4.45724 21.4283 
27416 322 4 20.9115 5.35765 20.9925 
27355 319 4 20.9173 5.35904 21.0036 
27354 319 4 21.1738 4.45777 21.4439 
27353 319 4 21.1835 3.83425 22.2703 
27414 322 4 21.1977 3.83098 22.2525 
27347 319 4 20.3677 5.89544 21.9764 
27406 322 4 20.3618 5.88567 21.9697 
27351 319 4 20.5188 3.96954 24.1519 
27412 322 4 20.541 3.95372 24.1377 
27352 319 4 20.9437 3.65555 23.2615 
27413 322 4 20.9644 3.64668 23.2442 
27403 322 4 20.1479 5.07511 23.7857 
27344 319 4 20.1376 5.09321 23.794 
27400 322 4 20.2548 5.48039 22.8777 
27343 319 4 20.2526 5.49432 22.8852 
27402 322 4 19.7931 5.99196 23.6024 
27345 319 4 20.5982 4.57494 23.0734 
27404 322 4 20.6096 4.56353 23.061 
27349 319 4 19.7921 6.0126 23.6058 
27361 319 4 19.588 5.62961 24.7667 
27410 322 4 19.5982 5.60312 24.7629 
27411 322 4 20.0409 4.66982 24.6936 
27350 319 4 20.0225 4.6921 24.7028 
27055 303 4 21.1093 9.61873 21.4296 
27056 303 4 21.4392 10.5045 21.8521 
27357 319 4 19.9865 7.01911 21.6185 
27418 322 4 19.9687 7.00706 21.6177 
27417 322 4 20.4687 6.29095 21.0618 
27356 319 4 20.4827 6.29655 21.0676 
27053 303 4 21.3315 7.67797 21.8591 
27469 325 4 21.3312 7.68931 21.8776 
27461 325 4 21.6337 8.83439 22.2427 
27054 303 4 21.0698 8.58416 21.4322 
27471 325 4 21.1094 9.6307 21.4508 
27044 303 4 21.6317 8.82371 22.224 
27470 325 4 21.069 8.59617 21.4524 
27472 325 4 21.4416 10.5157 21.8731 
27359 319 4 19.3218 7.1544 23.5 
27408 322 4 19.312 7.12979 23.5029 
27401 322 4 19.9 6.39724 22.6944 
27348 319 4 19.9071 6.41371 22.697 
27052 303 4 21.8241 7.14298 22.596 
27468 325 4 21.8257 7.1531 22.6123 
27043 303 4 22.0088 8.10312 22.8059 
27460 325 4 22.012 8.11286 22.8226 
27039 303 4 22.1935 9.06327 23.0159 
27457 325 4 22.1983 9.07262 23.0329 
27473 325 4 21.9766 11.014 22.6061 
27462 325 4 21.82 9.79415 22.453 
27057 303 4 21.9713 11.004 22.5864 
27045 303 4 21.8164 9.78386 22.434 
27360 319 4 19.3315 6.53088 24.3265 