9000
Atoms. Timestep: 0
O 2.328700 2.240060 0.879735
O 2.101100 1.323560 0.706275
O 4.779340 2.397890 0.761927
O 1.232030 1.916270 29.888800
O 2.205800 2.022120 29.978100
O 0.652140 1.199220 29.579500
O 2.811600 1.446550 30.384500
O 3.082360 2.404840 30.735600
O 4.815800 1.861290 31.246800
O 3.830620 2.589790 31.279000
O 2.445150 0.774614 32.533500
O 5.018380 1.407300 32.043600
O 5.093120 1.554280 32.990100
O 3.940130 2.626490 32.865400
O 4.403220 2.584560 32.044700
O 0.938238 31.990900 30.511100
O 0.785195 32.620000 29.845000
O 1.213720 31.376500 32.608400
O 1.770290 32.102500 32.205100
O 2.479240 32.429800 32.860500
O 33.066800 1.027530 28.674400
O 32.929600 1.373870 32.571500
O 33.048000 0.909582 31.463000
O 32.503800 1.666110 31.787200
O 33.011200 32.669400 28.959400
O 33.085200 32.597300 31.117800
O 31.824300 31.337800 32.651600
O 32.827100 31.185700 32.619300
O 32.210800 32.146600 32.797900
O 32.527000 33.068100 32.677100
O 4.184670 1.631090 2.143600
O 3.343370 1.191910 2.456890
O 2.900800 0.886112 3.965410
O 3.373170 1.516990 3.334910
O 4.354940 2.306050 2.812330
O 5.785910 1.832210 3.321080
O 5.080250 2.409670 3.453750
O 5.601380 0.994219 3.615050
O 5.953740 0.791339 4.573910
O 5.469520 1.562170 4.355090
O 2.883610 1.080960 7.028220
O 3.304890 1.876870 7.295990
O 3.901430 0.705856 6.268200
O 5.243640 2.462600 7.788740
O 5.708630 3.246570 7.543580
O 3.354130 2.562140 7.953160
O 4.333420 2.735430 7.952310
O 3.544730 33.120700 4.528230
O 3.844700 32.626500 5.511750
O 3.928420 32.224000 4.678750
O 3.294890 32.752900 6.848790
O 6.900830 1.382680 4.026690
O 8.610110 3.310960 3.762980
O 9.293090 2.714830 4.072610
O 7.188460 2.116420 4.583460
O 7.211600 2.833400 5.143330
O 8.108300 2.883950 5.446510
O 8.347260 2.868640 4.498260
O 6.481930 2.788510 7.185840
O 6.568700 33.025100 4.007940
O 3.022340 4.212970 0.739785
O 0.735073 4.953110 1.538210
O 3.734240 4.803810 0.659888
O 1.789410 5.579240 32.910100
O 2.355620 4.809690 33.079600
O 1.052940 5.004890 33.161600
O 3.276320 4.786310 32.317200
O 1.239550 10.830800 1.682730
O 1.337140 11.508400 1.019030
O 1.894350 12.381300 32.740100
O 2.102960 11.476000 32.994300
O 1.997190 13.348800 32.928600
O 32.367400 4.961750 1.772130
O 32.860800 5.639860 2.240990
O 32.149400 5.765730 3.512940
O 32.283500 5.159410 2.808440
O 32.096000 10.492400 1.664640
O 32.550400 9.679070 1.892780
O 32.919900 10.801000 1.928020
O 31.985800 6.659040 3.480120
O 32.458900 7.255030 4.047290
O 31.396100 8.931840 2.962160
O 32.295100 8.787470 3.307270
O 32.828400 8.969180 2.526970
O 31.809300 9.331900 3.985650
O 31.268700 9.829610 3.389630
O 32.773800 7.745840 4.813350
O 32.159100 8.159350 5.510010
O 32.677500 9.508280 4.388340
O 32.192600 8.995790 5.026910
O 5.941720 2.971530 1.654160
O 5.614670 3.701080 1.191970
O 5.603640 4.315690 3.092660
O 3.498620 7.752750 1.924420
O 3.928200 6.941040 1.779830
O 4.699430 7.485920 1.805220
O 5.864570 7.107060 1.599080
O 1.851460 9.608610 0.703524
O 2.345020 8.805600 0.670197
O 2.362140 8.236450 1.487080
O 2.625380 7.867980 2.322850
O 5.517480 7.961880 1.679830
O 2.380170 9.827880 32.489800
O 3.015960 10.352700 31.931800
O 6.849390 3.207520 1.863170
O 6.658570 4.152550 1.555660
O 6.425530 3.523330 0.732090
O 6.194060 3.938400 2.427240
O 7.187100 5.756920 3.074050
O 6.997770 4.742270 2.956810
O 6.445380 4.337250 3.555150
O 7.025750 3.852630 32.553100
O 7.641470 3.234530 32.147700
O 8.743280 2.919130 32.365200
O 8.210290 2.771780 31.541000
O 7.224510 6.911540 1.942340
O 6.702830 7.623910 1.597810
O 6.800940 7.051200 3.063280
O 7.716040 7.122290 2.698310
O 7.317710 6.538110 3.687390
O 2.124470 5.095070 3.633950
O 1.528760 5.720580 4.062660
O 2.841000 4.547410 3.323490
O 3.268010 4.826450 4.187020
O 4.027660 5.124800 3.624240
O 3.875050 5.396260 4.965760
O 2.975900 5.400110 5.288130
O 4.264130 4.831880 5.652570
O 5.947220 5.572380 7.053570
O 5.525390 5.754970 6.221410
O 4.596520 5.409790 6.381560
O 1.423710 6.114280 4.901970
O 2.357190 6.113660 4.824320
O 5.711270 9.059100 11.211400
O 4.757350 9.283060 11.063800
O 5.851350 8.194740 10.814600
O 5.035640 10.521600 10.566700
O 5.044140 10.126000 11.446300
O 5.598490 11.223500 10.194000
O 4.727890 11.704200 10.296500
O 6.848700 5.949150 7.313740
O 7.438780 5.196190 7.516780
O 8.311440 5.914580 8.903220
O 8.168090 5.559670 7.985820
O 7.994930 5.332340 9.570210
O 7.770040 5.652690 10.468600
O 7.106080 7.221540 11.346800
O 7.632940 6.076730 11.307300
O 8.050130 6.946620 11.343600
O 6.796980 7.993050 10.885900
O 0.818803 3.689290 4.411700
O 1.389300 2.864810 4.693330
O 31.397500 1.093800 2.693000
O 31.982500 1.821150 2.685480
O 31.417600 1.935930 3.587120
O 32.210100 1.366670 3.510980
O 31.354600 3.092520 3.894840
O 33.081900 2.972950 3.911680
O 31.378300 2.337200 4.491050
O 32.189500 3.224360 4.276900
O 31.083500 30.350400 3.247840
O 31.449100 29.760200 3.846940
O 31.737700 30.944800 3.617100
O 31.102200 32.240000 3.599110
O 31.464000 32.636300 2.825780
O 32.105300 28.118200 5.747870
O 31.370900 31.122600 4.460060
O 32.301000 30.248500 5.260270
O 31.639900 29.712800 4.734310
O 32.312100 29.580100 5.968650
O 30.840500 32.778200 4.407630
O 31.270400 32.032900 4.800320
O 30.765000 28.428400 7.134590
O 30.745300 29.344000 7.433790
O 31.401600 27.759200 6.984780
O 32.815000 28.716600 7.000670
O 31.786900 28.507000 6.525680
O 32.168300 29.440800 6.964870
O 32.992500 28.149900 6.262400
O 29.942300 29.603400 7.920030
O 1.519360 4.442440 6.014770
O 0.795848 4.955180 6.257220
O 1.979910 5.928770 7.086150
O 3.323440 4.827990 6.479490
O 2.492950 4.472340 6.241780
O 2.837710 5.635350 6.744690
O 1.525760 5.774650 8.195380
O 2.618810 5.974570 10.593100
O 2.193610 6.351640 7.918030
O 1.897750 6.059260 9.420020
O 1.042640 6.618600 8.277500
O 0.981707 6.068740 9.096680
O 2.853860 6.165040 9.528650
O 0.847943 6.635200 10.347000
O 1.780880 6.432660 10.348000
O 2.740010 6.882650 10.173700
O 32.274100 3.889020 7.401290
O 33.143600 4.084710 6.592460
O 32.201900 4.472310 6.620280
O 29.918000 3.129460 8.531030
O 30.484400 3.823360 8.086720
O 31.460000 3.663350 7.963730
O 31.973400 3.879500 9.480800
O 33.075500 4.466510 9.094380
O 32.199100 4.806800 9.302870
O 30.872700 2.113290 10.633900
O 31.329700 2.951030 10.520300
O 31.849200 2.927910 9.703600
O 33.164800 4.970300 9.972230
O 32.884300 5.859060 9.926400
O 0.933758 1.711330 7.658970
O 1.408190 1.019530 8.157080
O 2.339930 0.978562 7.926420
O 1.226280 1.630120 9.366740
O 1.862540 2.363160 9.472820
O 3.439310 0.711769 9.269700
O 3.748890 4.550630 9.080010
O 4.945280 5.326690 8.372090
O 4.465810 4.493500 8.466600
O 1.872480 3.715150 10.849600
O 1.453180 3.519060 10.010800
O 1.211300 2.640150 10.154100
O 3.233370 4.116330 9.785090
O 2.506660 3.585240 10.189700
O 4.195430 7.077790 7.160430
O 4.905990 7.556510 7.683040
O 5.184000 6.991620 8.366950
O 5.187760 6.192770 8.838520
O 3.007550 30.917500 9.058200
O 2.062160 32.665500 8.227390
O 2.652810 32.892300 8.913850
O 3.082450 31.863400 8.932630
O 3.754500 32.533500 8.730400
O 3.115250 31.293100 10.004100
O 3.032060 31.761500 10.830600
O 1.689090 32.255300 12.644100
O 2.835480 31.949600 11.805100
O 2.539090 32.250300 13.149600
O 2.690870 31.414400 12.578100
O 33.161000 1.775830 8.624090
O 4.610950 1.267610 9.623920
O 5.371980 1.915430 9.551380
O 1.115920 0.905356 11.029000
O 1.771090 1.181150 10.438400
O 1.952690 1.714050 11.219500
O 4.119700 1.523640 10.974000
O 4.603920 1.905470 10.262500
O 5.914840 2.721150 9.723520
O 5.430210 3.828610 10.995700
O 5.903600 3.144250 10.572200
O 5.586570 5.887850 11.406500
O 4.850240 5.481680 10.948900
O 5.530090 4.818880 10.965800
O 2.408830 1.465060 13.099500
O 1.438670 1.663150 13.088200
O 1.631350 2.101320 12.069200
O 3.114010 1.898500 12.582200
O 3.852790 1.784810 11.834500
O 2.358780 2.554810 12.975600
O 2.436720 2.641470 12.015700
O 6.016200 5.238040 11.961600
O 0.965034 2.327760 13.611200
O 1.560860 2.267210 14.363500
O 2.350970 2.496510 13.971000
O 5.933300 6.089010 12.434500
O 6.008200 6.316220 13.351700
O 32.764400 1.043360 11.291800
O 32.103300 32.008900 9.392050
O 32.798300 32.928700 10.615500
O 32.735900 32.092300 10.111500
N 1.531970 4.169840 13.184600
N 0.919735 4.664360 12.563600
N 2.211570 4.403550 13.852900
N 3.174830 4.247620 13.690300
N 1.198560 22.104300 18.772700
N 2.012830 21.915300 19.223500
N 2.929120 21.809700 19.332200
N 0.841665 27.165000 10.264800
N 1.736720 27.359100 9.910370
N 1.048850 26.869300 11.123600
N 1.880130 26.415200 9.775400
N 2.729670 26.774700 10.138500
N 3.761940 25.948300 11.431100
N 3.027870 26.361500 10.933800
N 1.711930 24.114800 12.626200
N 2.193350 23.269600 12.424500
N 2.835500 23.532600 13.039700
N 1.549620 25.009900 12.890900
N 1.288060 25.136800 11.969600
N 3.747400 25.274300 12.106100
N 4.397810 24.839100 12.703100
N 5.330250 24.998100 12.626900
N 1.164240 26.100000 11.664200
N 2.981740 23.799000 14.011100
N 2.672620 24.639300 14.352700
N 3.318330 25.329800 14.590500
N 1.810900 26.985100 14.656200
N 0.842300 26.583400 14.857900
N 1.114940 27.611400 14.696700
N 1.530000 25.948100 14.970900
N 4.115100 27.722000 13.725200
N 3.934160 27.420400 14.583700
N 2.461330 26.263700 14.730300
N 3.143490 27.629700 15.082800
N 1.108100 24.037200 15.565200
N 1.357130 24.003800 16.662300
N 1.074280 25.674000 16.833600
N 1.914030 24.422800 15.802000
N 1.316520 24.893300 15.114300
N 2.176770 25.892700 16.826400
N 2.507700 24.688500 16.441400
N 2.538430 25.460900 15.250700
N 2.881830 25.571000 16.326600
N 0.707480 27.355900 16.627500
N 1.529890 26.794900 16.695300
N 1.693230 27.721900 16.578900
N 2.777340 27.603300 16.508900
N 3.130920 27.042800 15.837400
N 2.814570 26.578200 16.645200
N 1.592520 24.898800 16.900700
N 4.018490 26.794800 17.853300
N 3.242950 27.059400 17.344600
N 4.674910 26.208500 17.484200
N 4.743640 27.172000 17.173900
N 2.892710 22.638200 18.824800
N 3.004220 23.138600 19.649000
N 2.127180 27.349400 19.497300
N 1.484260 26.689400 19.218500
N 0.816670 26.162100 20.491500
N 0.637830 26.556800 19.635900
N 2.079050 29.099700 12.750200
N 2.946890 29.194400 12.959500
N 4.011250 29.373000 13.245300
N 3.731000 29.045500 12.314400
N 1.368570 29.722700 12.650500
N 1.244260 30.020200 11.771700
N 2.215870 27.862200 14.536000
N 1.388360 28.458500 14.388400
N 1.585060 29.376700 14.803000
N 2.486090 28.754300 14.850900
N 3.794350 28.731800 13.962400
N 0.853627 28.424900 16.395000
N 1.981030 28.804500 16.503400
N 1.931410 29.331600 15.724100
N 2.633730 28.334400 15.921500
N 5.368500 29.072200 16.554200
N 5.070110 27.963100 16.697400
N 4.492260 28.759900 16.816500
N 1.011440 29.733400 15.932800
N 2.232150 28.098500 17.271100
N 4.748970 29.474100 17.635300
N 5.188250 29.887000 18.468900
N 4.278710 29.832100 18.441600
N 5.584150 29.723900 17.300300
N 3.600360 29.325400 19.179800
N 3.059850 27.995800 20.008000
N 2.871580 27.784800 19.109700
N 0.622250 30.418800 19.996700
N 3.659020 30.265200 19.054500
N 2.273030 27.958900 20.569700
N 0.734482 30.780900 21.202200
N 1.244620 30.050100 22.412000
N 6.245500 25.168000 13.019700
N 26.583300 23.276200 11.163200
N 27.496200 23.637900 11.090900
N 25.540600 23.796000 13.012400
N 25.462600 25.417300 12.225100
N 25.133400 24.479900 12.506200
N 26.291500 25.013000 12.332600
N 26.615600 25.554100 13.072500
N 25.507100 24.300000 13.889700
N 25.532500 24.858400 14.669500
N 25.303500 25.761100 14.524500
N 27.485200 25.433100 13.446600
N 27.333900 27.685100 14.804700
N 25.535800 27.338900 15.303000
N 25.101100 27.040500 16.114700
N 25.424200 26.356800 15.232000
N 27.282600 27.320500 15.700400
N 26.026100 26.901600 16.362200
N 26.582300 25.796900 23.141700
N 25.213100 26.835800 23.616000
N 24.968300 25.975300 24.069200
N 27.491300 25.970600 23.106700
N 26.068600 26.656400 23.132000
N 23.870700 25.910700 25.709700
N 24.545400 25.840900 24.885200
N 24.775400 26.291500 25.696000
N 23.143300 24.792300 27.386200
N 23.606000 25.817000 26.645200
N 22.773000 25.642000 27.083500
N 23.294100 24.204800 28.133900
N 26.341900 27.767500 16.174300
N 27.285200 28.069800 16.313700
N 30.802200 2.305670 13.088300
N 32.846300 4.148580 13.161600
N 30.432700 1.917090 14.020000
N 30.458600 1.010770 14.325300
N 30.532200 2.858320 13.770900
N 31.540800 2.902380 13.395400
N 32.289000 3.527520 13.625300
N 29.164300 5.281680 13.702400
N 29.044200 4.369830 13.977000
N 28.947900 5.107280 14.682500
N 30.065000 4.996120 13.429100
N 30.530700 4.602730 14.138000
N 31.030400 5.385480 14.148700
N 30.574900 1.312370 16.311900
N 31.086900 5.926940 15.800300
N 29.783400 5.017370 15.088300
N 30.687900 5.283180 15.243200
N 31.864300 5.355810 16.093200
N 31.659100 4.291310 16.232700
N 32.368300 4.631500 15.708500
N 30.633100 1.924410 17.088100
N 30.722000 3.416490 17.929200
N 31.326400 2.667320 17.771400
N 30.760400 2.852930 16.982500
N 31.464600 4.026660 18.005900
N 31.554800 4.505220 17.130100
N 31.734000 6.067630 13.988100
N 32.847100 21.938600 18.503000
N 28.897000 20.258000 19.597000
N 29.825600 20.366600 19.267700
N 30.723000 20.033800 19.112000
N 31.609700 20.407500 19.014600
N 29.084700 21.191600 20.048300
N 28.906500 21.017000 19.079800
N 29.220400 22.298800 20.157700
N 31.811000 22.190900 18.816200
N 32.379700 20.887000 19.701700
N 31.647500 21.483500 19.433800
N 32.370500 20.918700 18.751600
N 29.589600 21.610100 20.718200
N 31.612800 27.730200 9.417220
N 29.120400 25.558800 10.583200
N 29.357500 26.204600 9.932470
N 29.547200 26.934100 10.655600
N 29.592700 27.230900 9.773930
N 30.434000 27.681000 10.094400
N 29.742800 26.033100 11.140200
N 27.832400 23.123100 12.832300
N 27.751500 23.567000 12.031700
N 27.960700 24.633900 13.183800
N 31.089300 25.558400 11.637000
N 30.161000 25.316400 11.545400
N 30.790200 24.570700 12.575800
N 31.620500 24.935300 12.243700
N 32.692000 26.930800 13.035400
N 28.326900 23.762800 13.376700
N 30.959600 24.673100 13.514100
N 30.117800 25.663800 15.082600
N 32.208700 24.477900 14.316000
N 31.856100 24.577100 13.361800
N 33.100800 25.476000 15.059000
N 30.777800 27.562100 14.594900
N 30.539000 26.674200 14.834900
N 32.686000 27.233400 14.698700
N 32.238700 27.237200 13.867900
N 31.522100 26.966300 14.833100
N 32.465300 26.307100 14.885500
N 31.416000 26.048900 14.968300
N 32.166900 23.829000 15.823600
N 33.000300 23.928600 16.375400
N 28.696400 25.708200 16.825900
N 30.656100 24.786500 16.521200
N 30.871500 25.111600 15.125100
N 30.244000 25.446000 15.975000
N 31.534200 24.524800 15.343700
N 31.526600 24.237300 16.395900
N 32.678800 24.375900 15.172800
N 32.109500 25.293700 15.137100
N 28.147400 27.338200 15.141200
N 28.989700 26.981300 15.243500
N 30.225600 27.184700 16.631700
N 31.240200 26.888100 16.684000
N 30.091900 26.236400 16.594900
N 29.917900 26.770900 15.534300
N 32.236500 27.251300 16.636800
N 32.966300 26.459100 16.746800
N 31.798400 26.137000 16.834800
N 28.421200 23.718300 18.599000
N 30.689800 24.087800 18.459000
N 32.588700 22.814100 18.703100
N 29.417600 25.850300 17.432200
N 28.699600 24.465300 18.035900
N 29.422500 25.658800 18.544700
N 29.616000 24.842300 18.038800
N 29.930200 25.162700 17.010000
N 30.407400 24.581400 17.648500
N 31.193900 24.876900 18.053900
N 30.881000 25.806700 16.906200
N 33.158000 24.587700 17.052700
N 31.449300 25.768100 17.867500
N 32.150600 24.283800 17.141900
N 32.696200 25.576500 16.909200
N 29.469000 26.862300 17.426600
N 29.021100 27.302000 18.460600
N 30.029600 27.416700 18.185700
N 29.735700 26.524800 18.279100
N 31.652200 26.728200 17.632200
N 32.128600 27.254900 18.315500
N 31.889700 26.388200 18.614200
N 31.947400 27.653700 17.416200
N 28.433900 23.433900 19.490000
N 27.827200 23.404200 20.282700
N 28.271200 22.498700 20.131500
N 30.520800 23.220700 18.947400
N 30.881900 23.814300 19.601500
N 30.052300 24.122200 19.217100
N 29.973600 24.082200 20.146700
N 28.740900 25.547600 19.365800
N 29.137900 24.509200 18.880100
N 29.144900 24.537000 20.293300
N 29.606800 25.156900 19.520600
N 30.123400 25.723500 20.308300
N 32.192000 25.782200 20.450200
N 31.374200 24.505500 19.022200
N 31.537000 25.440400 18.775300
N 31.758800 25.228300 19.805800
N 31.558000 24.343200 20.110900
N 29.053800 26.528800 19.069100
N 29.282000 26.042600 20.061800
N 30.549200 27.620200 19.725100
N 29.923000 26.113500 19.264500
N 30.278100 26.651300 20.002200
N 30.164600 27.106400 19.024900
N 32.435300 26.714600 20.308500
N 32.047200 26.091000 19.524300
N 32.297800 26.998600 19.310800
N 32.733500 27.573300 20.086700
N 28.451800 25.672500 21.544000
N 28.940900 24.868700 21.209800
N 27.782400 25.532300 22.247000
N 30.435000 25.637900 21.472000
N 30.057200 24.917200 20.717200
N 30.490900 24.662600 21.607300
N 30.809400 24.180300 20.645000
N 31.337100 25.049500 21.823500
N 32.093000 25.569800 22.101600
N 33.094500 25.459400 21.148100
N 31.620000 24.381000 21.148300
N 32.087500 25.162100 21.142900
N 30.907300 26.924500 21.671500
N 30.937100 26.021700 22.190000
N 30.754000 27.299300 20.774700
N 30.510600 26.420100 20.914700
N 32.611600 26.261500 21.283000
N 31.475300 27.347400 22.292500
N 31.896300 26.492700 22.175500
N 32.920600 27.318800 20.966800
N 32.814000 27.010000 21.873400
N 29.795000 25.944500 23.343000
N 30.624900 26.315100 23.097300
N 30.857800 28.339300 9.572660
N 29.466300 32.827300 8.960980
N 29.684300 31.015200 10.318900
N 29.871600 31.258500 11.228100
N 30.569300 30.682900 10.921600
N 32.963400 30.122300 11.242600
N 32.126400 29.803900 10.932900
N 31.413900 30.281600 10.613900
N 29.173700 32.542000 9.887800
N 29.872500 31.945000 10.126100
N 32.484900 27.891200 12.881400
N 33.095000 28.433500 12.350100
N 30.814200 32.468800 13.038200
N 31.736500 32.239600 12.928200
N 30.427200 28.424000 14.822000
N 31.531300 28.917300 14.598900
N 32.772700 28.250700 14.579500
N 31.885900 27.960100 14.577700
N 33.021000 29.082600 14.256900
N 32.393800 29.668100 14.631600
N 32.258600 30.591400 14.761000
N 30.738300 32.748800 13.910400
N 32.386100 32.079200 13.711600
N 32.199100 31.508400 15.050500
N 31.888200 31.433200 14.161300
N 30.522800 28.177500 16.453600
N 30.690400 29.067200 15.489100
N 30.043400 28.021000 15.614200
N 31.445800 27.777300 16.565200
N 31.451400 29.184400 16.132700
N 32.720200 29.096900 16.328700
N 32.282000 28.207400 16.451100
N 31.884500 31.246800 16.467600
N 31.515800 29.597900 15.245000
N 32.645900 29.767400 15.615300
N 33.033200 30.175900 16.634000
N 30.709000 33.078100 15.809800
N 30.638700 32.129600 15.659500
N 31.410400 31.496400 15.693900
N 30.265200 28.460000 17.749400
N 30.843800 29.318400 17.847300
N 29.851600 27.890000 17.159200
N 31.115300 28.658300 17.026200
N 32.422200 28.236900 18.207100
N 32.051300 28.699300 17.384600
N 31.750600 29.339700 17.999700
N 32.710900 29.112700 18.481600
N 32.498900 30.872400 17.054000
N 29.508500 27.996300 18.885500
N 29.193700 29.308800 20.041800
N 30.477600 28.065700 18.716300
N 30.816800 28.551600 19.584500
N 30.648200 29.086500 18.825600
N 31.008400 28.240600 20.454500
N 29.817000 28.927500 19.345200
N 31.244900 29.417700 19.822200
N 32.495300 27.911200 19.244600
N 32.939000 28.765200 19.300100
N 33.009100 28.458400 20.331800
N 32.930600 29.496600 20.067900
N 31.367400 29.806700 18.954000
N 31.852200 29.780400 20.462500
N 32.268400 29.608600 19.353600
N 32.911400 31.223800 20.398800
N 29.349800 28.962500 20.970600
N 29.667900 29.060200 21.844900
N 30.322700 28.418700 21.494400
N 31.120000 27.864800 21.478300
N 33.098200 29.279900 21.849900
N 31.467800 28.960100 20.867700
N 31.868700 28.700300 21.645400
N 32.288700 27.871800 21.927100
N 32.906600 28.342800 21.434400
N 32.489900 28.996100 20.862800
N 32.895600 30.255200 22.144900
N 33.035600 29.864700 21.086400
O 5.501680 4.034090 13.428400
O 4.809220 3.095800 14.498400
O 5.216400 3.076020 13.592600
O 5.622260 3.577300 14.558100
O 9.186780 2.013660 12.735600
O 9.127010 2.926510 12.505300
O 8.850530 1.359540 13.318300
O 9.540960 0.746923 14.021600
O 9.750990 1.619410 13.592200
O 7.369960 3.039660 13.728000
O 6.717000 3.607130 14.096400
O 9.105520 3.490110 13.286100
O 8.101180 3.613560 13.507800
O 6.320140 4.440800 13.739500
O 6.281770 3.858560 15.131600
O 11.332400 28.874500 11.073800
O 11.202400 28.834100 13.145800
O 10.816400 28.526300 12.295700
O 10.706800 29.684500 13.072100
O 10.761200 29.576500 14.035300
O 9.812730 30.575500 13.629200
O 10.832100 30.479700 13.762700
O 9.386860 31.476300 13.767100
O 9.727630 32.364600 13.662900
O 12.010400 28.858000 10.433000
O 12.376800 28.693500 11.321400
O 12.422800 29.610800 11.251000
O 11.590600 28.156700 11.747500
O 12.404800 29.973600 12.165100
O 12.359600 30.492600 12.962200
O 2.642970 0.703573 15.484000
O 3.291510 1.391190 15.426500
O 3.978580 1.511150 16.119900
O 5.789400 1.503740 16.021000
O 4.585520 2.286620 16.115600
O 4.979620 1.535080 16.576800
O 3.217550 32.457200 15.492700
O 6.265010 1.706650 15.212400
O 7.123770 1.406150 15.561200
O 10.814600 0.713388 16.172500
O 7.670350 31.220900 15.785900
O 8.560060 31.153600 15.348900
O 7.305460 32.084500 15.627600
O 7.103530 33.022100 15.802100
O 9.024220 32.732200 15.892000
O 8.917130 31.997400 15.286700
O 11.020900 33.109200 15.239300
O 9.856650 33.150400 16.093000
O 11.995500 32.890200 15.043800
O 15.553300 32.119400 14.852100
O 16.168100 31.397200 14.695900
O 14.313700 30.796600 16.511400
O 16.666500 30.913900 15.319900
O 15.235500 30.999700 16.741200
O 16.703800 30.739000 16.214300
O 12.737800 32.247300 15.161100
O 13.084700 31.525300 15.761000
O 14.026500 31.629400 16.051900
O 15.597300 32.896700 15.424500
O 16.154200 31.174000 16.926600
O 1.628490 3.979560 15.961800
O 0.782798 2.649860 16.155600
O 2.227960 3.281880 16.088400
O 1.194010 3.406680 16.568800
O 2.709030 4.078100 16.034600
O 5.383070 4.056730 16.848000
O 3.737570 5.459800 15.745500
O 2.953100 4.988530 15.913400
O 4.464850 5.620210 16.336400
O 5.073710 4.894000 16.431900
O 4.068580 2.245490 18.389100
O 3.753950 1.331270 18.019100
O 3.739790 3.547900 17.437900
O 3.609160 2.591670 17.586100
O 4.519110 3.156960 17.922000
O 5.337640 3.729640 17.902100
O 4.619020 4.285810 17.397100
O 4.914110 30.944900 16.444200
O 5.373980 30.992900 15.601200
O 4.602360 31.450100 15.364200
O 5.031280 32.002600 16.053900
O 4.442830 31.631900 16.885600
O 3.715700 32.174300 18.288400
O 3.429810 31.587100 17.610600
O 3.555650 33.072200 18.538600
O 4.390830 31.626100 17.781300
O 30.399800 3.016510 14.848300
O 32.621700 2.075380 16.007000
O 31.771500 2.234320 15.538100
O 31.298700 2.997390 15.134000
O 3.285200 5.602360 18.580600
O 5.362220 3.785630 19.761600
O 4.760040 3.915700 20.462300
O 3.784660 5.335360 19.439600
O 4.112390 5.631960 20.277300
O 4.610720 5.032420 20.804900
O 4.705890 4.316770 21.345600
O 3.556750 7.036450 18.248700
O 2.623850 7.105600 18.390300
O 3.214610 7.863330 17.870300
O 2.946260 6.373200 19.012100
O 6.014780 28.437900 19.061500
O 5.415850 30.573200 20.441400
O 5.177000 31.517000 20.248200
O 4.964310 32.450500 19.942400
O 5.312770 32.354900 20.957200
O 5.986620 32.928900 20.638900
O 4.500200 32.879800 20.633300
O 6.428520 1.108970 20.195900
O 6.240390 3.368490 19.826600
O 6.776900 1.933220 20.722300
O 6.475370 2.859110 20.602800
O 6.425480 26.720400 17.690400
O 6.977530 26.365000 17.029900
O 6.936360 27.492500 17.697400
O 6.449980 28.258600 18.221300
O 6.535750 28.721700 19.824400
O 6.841870 29.559200 20.141400
O 6.930880 30.283900 20.752200
O 6.264340 30.944700 20.741200
O 1.223920 2.007800 19.844600
O 3.794090 1.878360 19.844000
O 1.653710 3.239950 19.798400
O 0.730564 2.660540 19.345600
O 1.530030 3.881860 20.497000
O 2.540650 3.268130 20.163800
O 3.018710 2.707940 19.541300
O 3.584220 2.680500 20.333900
O 1.695690 2.247220 20.645400
O 3.690130 1.327020 20.575900
O 4.250370 1.036010 21.319700
O 4.368750 1.520850 22.206200
O 1.884680 3.139770 21.030800
O 4.277420 2.420970 22.474400
O 3.470230 3.346140 23.695400
O 4.008550 3.269080 22.908700
O 4.102270 4.743260 23.958900
O 4.200270 3.809230 24.208900
O 3.522700 3.874610 25.472200
O 3.619360 4.684930 24.979200
O 3.728710 5.466450 24.440500
O 2.821210 4.537490 25.709600
O 32.664400 0.795540 18.327900
O 32.035500 1.602890 19.299700
O 32.463800 0.772791 19.299200
O 32.335700 2.518120 19.259600
O 31.112300 31.731600 17.444600
O 32.094300 31.776300 17.478600
O 32.878200 32.558400 17.845300
O 32.074800 32.734300 17.401700
C 1.005360 4.957490 20.245500
C 2.150530 3.628270 22.092000
C 1.544060 5.336380 20.898200
C 1.626940 6.010540 22.048200
C 1.429250 4.709840 21.620400
C 2.583150 5.868610 22.176800
C 2.599330 4.466520 22.252800
C 3.525100 4.616130 22.020700
C 1.554550 4.271830 22.508600
C 3.426750 5.387590 22.576700
C 3.271690 9.766490 17.361000
C 3.615620 9.763980 18.278700
C 4.095080 9.945600 16.897700
C 5.212520 11.235500 17.453700
C 5.112090 10.377200 17.076600
C 4.669330 9.683700 17.560700
C 2.595790 6.824250 20.307500
C 1.349030 8.443250 20.167300
C 2.260650 8.637490 19.868000
C 1.229540 8.302110 19.180000
C 3.229220 8.618020 19.752100
C 4.001920 9.042040 19.442900
C 3.049010 9.646640 19.080000
C 2.777370 10.000600 19.944500
C 0.727139 6.216570 22.103000
C 1.388170 6.799600 21.416500
C 1.749350 7.641480 21.634200
C 3.109180 6.259960 21.465000
C 3.869670 6.666530 21.151500
C 2.654660 7.186340 21.170200
C 4.078770 7.613910 21.237400
C 4.394810 6.877730 22.048900
C 1.876800 9.553730 22.262800
C 0.859845 8.885890 22.258200
C 0.823247 7.941280 21.729300
C 1.703670 8.556820 21.894900
C 2.643700 9.049350 21.939900
C 2.769250 8.000940 21.599400
C 3.539190 8.535050 21.537600
C 3.502730 9.513060 22.002800
C 4.847610 8.037130 21.623500
C 4.413080 8.970070 21.497400
C 4.375140 9.898300 21.925400
C 1.645600 6.226440 23.130600
C 1.266780 7.231820 23.527800
C 2.259500 6.950790 23.258800
C 1.518120 6.477150 24.081200
C 0.628701 6.570900 23.221700
C 2.908990 6.264800 23.021400
C 4.024280 7.078620 22.914400
C 3.175020 7.440740 23.153900
C 3.765600 6.247120 22.351100
C 2.124320 7.928130 23.637500
C 1.086370 8.284480 23.913300
C 2.087730 8.795190 23.999300
C 2.970370 8.413320 23.677800
C 3.896670 8.029770 23.323000
C 3.856440 8.893970 23.644700
C 2.977120 9.272960 24.011100
C 4.896430 9.032430 23.379200
C 4.901710 8.103280 23.010100
C 4.443030 9.523690 24.079900
C 5.313300 8.708500 22.398900
C 1.405080 11.240600 24.112100
C 0.940360 9.971170 22.591800
C 1.722590 10.471500 22.732300
C 1.010100 11.126200 23.030000
C 2.642530 11.073800 22.717300
C 4.084230 11.043900 22.934500
C 2.675560 10.098500 22.443500
C 3.471550 10.555900 22.365400
C 4.247330 10.574100 23.719000
C 5.012010 10.328100 23.030600
C 5.797680 10.802000 22.671900
C 1.339820 9.328750 24.276100
C 1.710110 10.618300 24.699300
C 2.119220 9.812450 24.369600
C 0.621038 10.061600 24.659500
C 3.482910 11.450600 24.267800
C 3.571700 9.904760 24.293200
C 2.978190 10.613500 24.409900
C 2.517240 11.400500 24.315900
C 3.607670 9.194450 26.557700
C 4.562880 9.357880 26.495200
C 5.033650 8.528940 26.679200
C 6.010760 8.370010 26.717100
C 3.288960 9.893530 27.113000
C 3.786490 10.712600 27.172900
C 4.511590 11.259200 27.002100
C 5.471180 11.107000 26.738700
C 1.937760 9.522510 29.455700
C 2.254360 10.434100 29.066700
C 2.044280 11.190700 28.600600
C 3.097470 11.305600 28.801900
C 3.894240 11.175400 28.087900
C 3.883810 10.982500 29.137100
C 4.868860 11.276800 29.008000
C 4.715540 10.761300 28.268400
C 1.660930 9.381600 30.347300
C 0.893732 10.945400 30.588800
C 1.038800 9.941540 30.856200
C 1.594090 10.655000 31.129200
C 4.973750 14.416800 0.791564
C 5.854130 14.186200 1.912280
C 4.873900 13.978900 1.620160
C 3.751300 15.440100 0.693040
C 3.624130 16.053600 1.446560
C 4.504360 16.192100 1.633680
C 5.529690 16.689500 14.538900
C 5.484120 16.068700 15.280700
C 5.849950 15.453200 15.957300
C 3.549070 12.076700 17.279600
C 4.179260 12.691200 17.010400
C 4.709340 12.657800 17.816000
C 4.377480 11.626300 17.227700
C 4.390730 13.531100 17.591800
C 5.019220 13.914600 18.162200
C 4.801540 14.810100 18.609200
C 4.154480 16.127600 17.897600
C 4.021270 15.450300 18.638300
C 5.110060 15.849000 17.719400
C 5.907650 15.669600 17.226500
C 2.337160 12.161400 20.361400
C 2.707190 12.992000 19.943700
C 5.343170 12.992900 19.992300
C 2.283800 14.540800 19.692800
C 2.450870 13.831300 20.329800
C 5.969240 13.352600 19.299500
C 4.870970 13.692900 20.449200
C 4.329660 14.448000 20.278200
C 5.936190 16.547800 19.338600
C 4.471400 16.786800 20.153300
C 5.280770 15.801200 20.359300
C 1.370980 12.417200 20.645700
C 5.343670 12.614000 21.038800
C 2.274160 13.793200 22.242500
C 3.255380 14.770800 22.111900
C 3.789590 14.845600 20.970800
C 4.290910 14.619700 21.766300
C 0.873942 16.515500 22.018100
C 5.117330 16.594800 21.803200
C 4.334940 16.801800 21.097700
C 5.579810 15.925100 21.240800
C 2.102690 12.417000 23.727800
C 1.961640 11.626200 23.215200
C 1.856180 13.237500 22.867300
C 2.575490 13.161000 23.444000
C 3.101300 11.646800 23.412200
C 5.906700 12.511200 23.298000
C 5.865460 11.719900 22.818200
C 1.474780 14.804400 23.965900
C 2.207190 14.222500 24.096800
C 3.951060 14.427600 22.612300
C 2.784730 14.340900 22.848100
C 5.884950 11.979700 24.144000
C 5.554110 12.285300 25.015000
C 4.836460 12.652400 25.423200
C 5.588670 13.227500 25.343900
C 3.065220 14.430100 25.510700
C 3.929110 13.636600 25.145300
C 4.298460 14.459100 24.736400
C 4.868890 13.623800 24.849100
C 5.065640 14.543400 25.321500
C 5.821410 14.079200 25.885000
C 2.334260 15.124100 24.409900
C 2.154870 15.206000 25.926700
C 1.989590 16.556500 25.925800
C 3.836310 16.685600 25.207300
C 2.999870 16.382000 25.406300
C 2.789670 15.326800 25.210600
C 3.835890 15.372200 25.331300
C 4.779670 15.511700 25.422700
C 3.990110 12.932600 26.001800
C 2.852660 12.758200 27.484400
C 3.544020 12.610200 26.739200
C 3.841670 11.847300 27.409000
C 5.089540 11.717100 26.049100
C 4.329420 12.106300 26.446200
C 5.419010 13.253600 27.440000
C 1.542710 15.023400 26.924100
C 1.781300 14.138700 27.179300
C 3.378940 13.700100 26.051800
C 2.590580 14.282500 26.316900
C 2.758560 13.522700 26.863800
C 4.755050 13.873800 27.674200
C 5.199940 14.797200 26.281600
C 4.542550 14.599900 27.110300
C 5.299100 14.007100 26.811500
C 1.722910 15.796600 27.494900
C 1.122780 16.554200 27.174800
C 1.538240 15.990200 26.570600
C 2.589960 15.954200 26.279600
C 4.072970 16.395500 26.942600