950
Atoms. Timestep: 0
H 0.796485 24.960900 16.060300
H 1.680200 25.491100 15.961800
H 2.150900 27.406600 15.631700
H 2.175950 26.386300 15.805000
H 0.956242 26.172200 15.852800
H 1.191590 27.130000 15.687700
H 0.702975 28.768800 15.413600
H 1.611750 28.278700 15.488500
H 31.403900 25.428000 15.999000
H 32.312600 24.937800 16.073900
H 32.548000 25.895600 15.908800
H 30.864700 26.300000 15.855700
H 30.839700 27.320400 15.682500
H 31.824000 26.576700 15.799700
H 32.783300 26.853300 15.743700
H 32.059400 27.534400 15.634700
H 30.366400 25.698700 17.950100
H 30.382600 25.674900 17.968900
H 30.540100 26.612800 17.496100
H 30.559500 26.584700 17.507600
H 30.910800 27.557600 17.549000
H 30.890600 27.585700 17.544700
H 31.045200 27.209000 18.458000
H 31.060600 27.189100 18.466400
H 30.783100 26.265500 18.660700
H 30.796500 26.247700 18.676400
H 30.415900 25.088400 18.784800
H 30.427500 25.072200 18.809400
H 30.675500 24.945400 19.776700
H 30.682300 24.937900 19.803700
H 30.946400 25.879200 19.593800
H 30.937600 25.888900 19.574000
H 31.210500 26.820500 19.383800
H 31.199800 26.832300 19.371400
H 31.360400 26.452000 20.301200
H 31.354300 26.455700 20.284700
H 31.616500 27.399200 20.082000
H 31.624500 27.393300 20.091300
H 31.078600 25.308000 20.685600
H 31.075600 25.308000 20.660000
H 31.859400 27.051900 21.246600
H 31.508900 26.079000 21.198000
H 31.861600 27.056300 21.260000
H 31.510200 26.083400 21.218600
H 31.335400 28.215600 15.525600
H 32.219100 28.745700 15.427200
H 33.018700 27.811100 15.578700
H 31.342400 28.333000 18.082000
H 31.324000 28.356700 18.082700
H 31.474600 27.761800 19.173900
H 31.461900 27.775800 19.168700
H 31.724000 28.719300 18.966000
H 31.738700 28.703200 18.963900
H 31.993500 28.568900 19.958300
H 31.983600 28.576300 19.957900
H 32.033100 27.966000 20.792700
H 32.038400 27.966100 20.798700
H 2.303210 6.859460 22.173000
H 3.283080 7.187850 22.111900
H 3.991760 7.927470 22.261800
H 2.287090 7.791030 22.536100
H 1.314690 7.030300 22.428700
H 1.426690 8.188590 22.854900
H 1.410580 9.120160 23.218000
H 2.270970 8.722600 22.899300
H 2.254850 9.654170 23.262400
H 3.131370 8.325040 22.580500
H 3.115250 9.256600 22.943600
H 4.239360 8.880150 22.582400
H 1.258860 10.257400 23.686600
H 2.238730 10.585700 23.625500
H 3.227250 10.414900 23.369800
H 3.959530 9.790610 22.988000
H 4.155120 14.517300 25.899900
H 4.814460 13.720000 25.934100
H 5.120210 12.190600 27.186000
H 4.396160 12.854000 27.374600
H 5.167710 12.868300 26.404900
H 3.519230 14.282100 26.937200
H 3.672100 13.517400 27.563100
H 3.366350 15.046800 26.311300
H 4.243280 13.618700 26.748600
H 2.164590 16.802300 27.034100
H 2.165570 16.808000 27.028100
H 2.179750 16.791900 27.051400
H 2.659510 15.166400 27.058100
H 3.189080 12.517400 29.226400
H 3.824970 12.752700 28.189100
H 3.977850 11.988000 28.815000
H 4.684690 11.868300 28.068200
H 2.176490 14.166500 28.721400
H 2.223990 14.844200 27.940300
H 2.529740 13.314800 29.192200
H 3.100920 13.416100 28.377700
H 2.948040 14.180800 27.751700
H 1.818520 16.732000 28.007300
H 1.836660 16.729900 28.026200
H 1.825630 16.741800 28.003700
H 2.008160 16.811300 29.043900
H 1.987070 16.804100 29.026200
H 2.001280 16.815600 29.021200
H 5.434720 18.045900 20.139000
H 4.695210 19.592400 19.891800
H 5.439750 18.949800 19.711300
H 5.330390 20.092900 19.245400
H 4.459040 18.747600 20.441500
H 5.312940 16.961800 20.726900
H 4.685140 17.784700 20.747200
H 2.945470 16.980600 26.380700
H 3.335810 17.129600 27.272700
H 3.339890 17.130300 27.258000
H 3.351280 17.122700 27.283500
H 3.916600 17.261300 26.185900
H 3.914080 17.256500 26.167100
H 3.928670 17.245400 26.193900
H 2.932540 16.996000 26.367500
H 2.929990 16.996400 26.355800
H 4.296100 17.395100 27.358000
H 4.311480 17.390100 27.363600
H 4.301970 17.391400 27.336300
H 5.498310 17.712700 27.299300
H 5.506000 17.718300 27.328800
H 5.491110 17.722100 27.329700
H 4.854150 17.518700 26.512400
H 4.865890 17.515400 26.540900
H 4.853110 17.527100 26.538100
H 2.796870 16.997400 28.106300
H 3.197610 17.136900 28.984200
H 3.202670 17.139500 29.009100
H 3.182080 17.131100 28.997900
H 3.757080 17.264800 28.186300
H 3.739090 17.263100 28.178000
H 3.749790 17.264200 28.160300
H 4.142370 17.396700 29.083200
H 4.162880 17.406900 29.089200
H 4.159690 17.398100 29.062500
H 2.787710 17.003000 28.082000
H 2.778810 16.997600 28.092600
H 4.711870 17.525300 28.238600
H 4.699370 17.528700 28.263300
H 4.717290 17.532200 28.266400
H 5.659660 17.794200 28.348600
H 5.677490 17.799700 28.346500
H 5.673950 17.786500 28.316900
H 5.334410 17.737700 29.321300
H 5.334020 17.720300 29.292500
H 5.313590 17.723900 29.321800
H 2.648270 17.014200 29.831800
H 3.585490 17.284200 30.178800
H 3.585500 17.271800 30.153400
H 3.561580 17.264900 30.170000
H 2.625080 16.999100 29.817800
H 2.645430 17.009600 29.808100
H 4.568680 17.549100 29.992000
H 4.569590 17.532000 29.964700
H 4.545640 17.530200 29.988400
H 7.038200 16.521300 19.816300
H 6.174220 16.499300 20.386200
H 10.420600 18.071900 16.776600
H 10.406600 18.093600 16.770500
H 11.287700 18.125100 16.213500
H 11.274100 18.150700 16.208400
H 11.351200 20.298600 15.692200
H 11.340400 20.328600 15.706400
H 9.806870 19.691200 16.808500
H 11.259900 19.364900 15.960900
H 10.579000 19.994900 16.250300
H 10.499800 19.033400 16.513500
H 10.487100 19.057200 16.516000
H 10.567600 20.020900 16.261400
H 11.272000 19.337100 15.955300
H 9.794810 19.713300 16.816400
H 9.182990 21.332900 16.862300
H 9.193110 21.310500 16.840400
H 10.658200 20.956400 15.987200
H 9.861150 21.891200 16.314400
H 9.875310 20.676900 16.561900
H 10.728600 21.948200 15.752300
H 10.648100 20.984600 16.006800
H 10.737400 21.917800 15.724100
H 9.870300 21.864700 16.287200
H 9.886060 20.652700 16.545400
H 7.909550 17.866600 18.620300
H 9.582310 18.552900 17.196200
H 9.595980 18.534000 17.198600
H 7.055640 19.652400 18.334800
H 7.683450 18.829500 18.314600
H 6.194360 20.114900 18.675500
H 9.022000 19.405600 17.371400
H 9.034730 19.387600 17.366600
H 8.875840 20.423200 17.249200
H 8.887270 20.403800 17.235500
H 6.179260 17.403200 19.958500
H 6.928830 17.664400 19.350400
H 7.673380 17.021800 19.169900
H 6.184290 18.307100 19.530900
H 6.933870 18.568300 18.922700
H 6.189330 19.211000 19.103200
H 11.964900 18.679300 15.660300
H 11.952300 18.708900 15.660500
H 12.259400 19.618600 15.273600
H 12.270800 19.586000 15.265200
H 11.552900 21.488900 15.326600
H 12.123300 20.602200 15.134100
H 11.562100 21.455800 15.302000
H 12.113200 20.636200 15.151400
H 27.084000 12.054100 23.227700
H 26.612500 12.951600 23.437000
H 27.725000 12.553400 23.810600
H 26.610900 13.876300 23.902600
H 27.488400 13.464500 24.148100
H 27.079500 14.580200 24.499800
H 27.617800 21.956000 24.933700
H 33.133500 7.654590 22.810500
H 32.853600 8.565050 23.216100
H 33.101200 9.517730 23.536700
H 28.839100 11.230500 23.718600
H 27.899000 11.424100 23.330800
H 30.636500 16.840200 22.297400
H 28.602600 12.141600 24.056100
H 29.023800 14.950600 23.207400
H 29.016800 14.966700 23.206700
H 29.792900 14.354200 23.513800
H 29.797200 14.336200 23.517700
H 30.811000 14.152800 23.619000
H 30.807500 14.173100 23.610900
H 30.752800 15.048600 23.178500
H 31.793600 14.449300 23.484200
H 31.788900 14.472000 23.471900
H 28.687300 15.846400 22.771800
H 28.698200 15.831300 22.771400
H 28.892600 16.757800 22.325600
H 28.907600 16.742200 22.326300
H 30.238100 15.159200 23.121800
H 29.859300 15.447500 22.972700
H 30.694700 15.944400 22.737900
H 29.685300 15.905300 22.750800
H 30.683300 15.964200 22.729900
H 29.801100 16.343300 22.532100
H 31.236100 15.218100 23.100900
H 30.130600 16.710400 22.358800
H 31.128600 16.769300 22.337900
H 32.474100 15.170700 23.134100
H 32.481800 15.146500 23.149500
H 31.530100 16.441300 22.503200
H 31.588200 15.545500 22.943700
H 31.681400 16.023100 22.708900
H 32.679400 16.082000 22.688000
H 32.691100 16.057500 22.704500
H 28.366000 13.052700 24.393600
H 29.243500 12.640900 24.639000
H 30.121100 12.229100 24.884500
H 30.119400 13.153700 25.350100
H 29.652500 11.525100 24.287300
H 28.129400 13.963800 24.731000
H 28.832900 14.681200 25.456300
H 29.006900 13.552000 24.976500
H 27.892800 14.874800 25.068500
H 29.647900 14.051300 25.559400
H 28.533800 16.687500 25.400300
H 28.506200 16.703700 25.420300
H 29.328400 16.145700 25.710700
H 29.356900 16.129100 25.687400
H 30.383600 16.016500 25.757800
H 30.354900 16.031900 25.781900
H 31.310700 16.393000 25.614900
H 31.338700 16.379800 25.592400
H 29.577800 17.456500 21.987800
H 29.595800 17.439400 21.991600
H 30.559200 17.755300 21.848800
H 30.578400 17.736000 21.856800
H 32.349900 16.961800 22.253100
H 32.365500 16.938200 22.268400
H 31.592200 17.552500 21.958200
H 31.573800 17.574300 21.945900
H 29.826900 19.575600 24.003600
H 29.849800 19.568800 23.998400
H 30.876500 19.456200 24.068700
H 30.853400 19.461900 24.074900
H 28.242200 18.475500 24.531100
H 28.266900 18.463600 24.520500
H 28.134800 17.541900 24.973100
H 28.108600 17.556500 24.988500
H 29.099800 17.680100 24.940600
H 29.191800 18.128100 24.699300
H 29.325200 17.240000 25.139200
H 29.481000 18.509200 24.531700
H 29.709700 16.974700 25.301700
H 30.700800 17.098400 25.253900
H 30.116700 17.792600 24.878100
H 30.090900 17.803800 24.892800
H 30.908200 18.345200 24.617000
H 31.041600 17.457200 25.056800
H 31.082100 17.927500 24.844900
H 30.472200 18.632900 24.483800
H 29.983300 18.680700 24.438200
H 30.250100 16.904600 25.317900
H 32.073200 18.051100 24.797100
H 32.098600 18.043300 24.783000
H 31.966500 17.121700 25.235600
H 31.939600 17.132100 25.254500
H 28.871100 19.214600 24.170600
H 28.894600 19.205500 24.163700
H 28.736900 20.425900 25.571000
H 29.753200 20.245200 25.649600
H 31.699600 18.897800 24.355900
H 31.675600 18.903900 24.365300
H 27.955300 21.052100 25.309000
H 28.615200 22.022200 24.909900
H 29.174800 21.257200 25.228600
H 30.610200 22.154600 24.862400
H 29.612700 22.088400 24.886200
H 30.172300 21.323400 25.204800
H 30.731900 20.558300 25.523500
H 31.607700 22.220800 24.838700
H 31.410700 21.281500 25.226700
H 29.472200 23.931500 24.122800
H 28.493600 23.618400 24.248800
H 27.814800 22.895300 24.545600
H 29.053200 22.853400 24.567500
H 30.488600 23.750800 24.201300
H 30.050600 22.919600 24.543700
H 31.270200 23.124600 24.463300
H 9.648480 4.784710 15.833100
H 9.034190 5.296230 15.175300
H 9.081920 5.275430 15.176200
H 9.531160 5.527320 16.818300
H 9.339310 5.568570 16.352500
H 9.006570 5.827860 16.021800
H 10.083400 4.695150 16.768300
H 11.107500 5.785380 15.256700
H 11.117300 5.806000 15.250100
H 9.685710 4.775110 15.852100
H 10.103900 4.700000 16.796100
H 9.608630 5.716130 17.304100
H 10.028100 5.758410 18.461300
H 10.014900 5.786600 18.472800
H 10.224300 5.070230 17.755400
H 10.222300 5.051550 17.730300
H 8.454280 6.066910 14.949500
H 8.405110 6.092650 14.971100
H 9.883380 7.126110 14.393100
H 9.873020 7.101100 14.393800
H 10.496800 6.300650 14.598500
H 10.507700 6.325120 14.593800
H 9.403330 7.972260 14.697400
H 9.411490 7.994360 14.701600
H 7.761490 7.653820 15.950300
H 7.735580 7.667430 16.006300
H 7.970970 6.937460 15.232900
H 7.929780 6.960570 15.275300
H 8.992920 6.362030 16.852800
H 8.723600 6.214470 15.901200
H 8.454370 6.660030 16.071800
H 8.377200 7.007930 16.401500
H 8.978950 6.359490 16.868300
H 10.167900 7.251610 15.343500
H 10.160600 7.233040 15.342400
H 11.069400 6.717060 16.722400
H 11.065300 6.707130 16.722400
H 10.777800 6.575180 15.773800
H 10.784900 6.591560 15.772000
H 10.448100 7.364980 16.291000
H 10.452400 7.377110 16.293800
H 9.218530 8.697220 15.436800
H 9.213590 8.680700 15.428100
H 9.356190 9.046360 16.401600
H 9.354630 9.036600 16.389900
H 9.835480 8.037170 15.865300
H 9.830840 8.022840 15.859500
H 10.118400 8.154780 16.808100
H 10.120000 8.162660 16.815700
H 8.646520 7.155490 17.353200
H 8.951330 6.891120 17.714800
H 8.923710 7.422750 18.561300
H 8.903910 7.448620 18.529500
H 9.262230 6.509590 17.804500
H 9.503540 6.058950 17.664800
H 8.426750 7.191660 16.918300
H 11.021500 7.628110 18.194600
H 10.735600 7.496930 17.239600
H 11.023200 7.628870 18.188200
H 10.737000 7.502610 17.244200
H 8.309420 7.934270 17.903400
H 8.300130 7.948950 17.853600
H 7.881970 8.024050 16.909500
H 7.874540 8.023830 16.968200
H 9.788660 8.944590 17.325300
H 9.787590 8.948220 17.337600
H 10.397100 8.429100 17.993800
H 10.399400 8.429320 17.983500
H 9.552800 6.626330 18.765400
H 9.531550 6.657150 18.756100
H 11.541600 5.693370 16.192000
H 11.548700 5.707860 16.186100
H 14.627700 3.887270 21.966700
H 15.006200 4.668030 21.402000
H 15.525900 4.690570 22.256000
H 15.663200 5.460880 21.294900
H 14.629200 3.327780 22.837700
H 15.010200 3.139500 23.781700
H 15.337400 4.020450 22.973800
H 15.857200 4.042990 23.827800
H 13.199500 4.311160 23.520100
H 13.215200 4.335320 23.517900
H 13.568300 5.130630 22.957100
H 13.547500 5.104090 22.952800
H 14.069500 5.146570 23.804600
H 14.399900 5.575090 23.761200
H 13.908400 4.769890 24.092800
H 14.753000 5.864360 23.936900
H 14.198200 5.945720 22.854600
H 14.175300 5.919780 22.842000
H 16.565400 4.735650 23.963900
H 16.045700 4.713110 23.110000
H 16.234200 5.383240 22.392100
H 16.753900 5.405780 23.246100
H 13.224400 3.753460 24.391900
H 13.233600 3.772890 24.386800
H 13.615600 3.580420 25.334600
H 13.618500 3.594060 25.331100
H 16.428100 3.965350 24.925000
H 15.668700 3.372870 24.545700
H 14.110000 4.399260 24.999400
H 14.429900 4.513730 25.376100
H 13.907900 4.471250 24.524200
H 14.591400 5.189050 24.656500
H 14.601500 5.204470 24.667800
H 14.803200 4.833840 25.574400
H 15.275000 5.906840 24.788800
H 15.113400 5.231530 25.508400
H 15.294700 5.639040 25.242700
H 15.093100 6.009670 24.336200
H 14.268300 3.838420 26.095700
H 14.266800 3.846730 26.097600
H 15.004900 4.463210 26.481000
H 15.007600 4.458310 26.471100
H 15.635300 5.274010 26.360300
H 15.634800 5.278300 26.378500
H 11.493400 6.759860 17.886100
H 11.492800 6.757710 17.884500
H 11.682600 6.049270 17.153900
H 11.686300 6.057000 17.150900
H 16.422700 6.053360 21.674200
H 14.936300 6.562200 23.238000
H 14.914600 6.539680 23.217400
H 15.567300 6.797670 23.978400
H 15.584600 6.814870 24.004500
H 15.983400 6.066940 25.793000
H 15.958500 6.624640 24.921100
H 15.969500 6.636040 24.948700
H 15.987900 6.073610 25.817700
H 13.738400 27.665400 22.305400
H 13.632500 27.305000 23.270100
H 13.519400 27.478200 24.284500
H 13.858200 27.238100 27.640400
H 13.804400 26.786900 28.570600
H 13.658800 26.855400 29.593200
H 13.460400 27.425300 30.434400
H 13.808600 28.462700 21.648900
H 13.824400 29.483400 21.476400
H 13.781500 30.453800 21.834200
H 13.619000 28.300600 23.362800
H 13.707000 28.879400 22.552200
H 13.605500 29.296100 23.455500
H 13.693500 29.875000 22.644900
H 13.591900 30.291700 23.548200
H 13.691500 31.114100 22.626500
H 13.578400 31.287300 23.640900
H 13.429400 28.138400 25.076800
H 13.386500 29.108900 25.434600
H 13.517400 28.717300 24.266100
H 13.503900 29.712900 24.358800
H 13.402300 30.129600 25.262100
H 13.472500 30.926900 24.605600
H 13.660900 29.109500 26.962900
H 13.805700 28.088300 27.052000
H 13.462800 30.028100 27.397200
H 13.263300 29.471000 29.553400
H 13.561300 28.918100 27.939300
H 13.659900 27.982400 28.278100
H 13.461600 28.726700 28.915800
H 13.560200 27.791100 29.254500
H 13.264400 30.598100 28.238300
H 13.118800 30.666600 29.261000
H 13.363000 29.662400 28.577000
H 13.262300 28.344000 30.868600
H 13.117500 29.365200 30.779500
H 13.361900 28.535400 29.892200
H 13.065000 30.215300 30.191100
H 17.463600 5.538960 24.253200
H 17.085200 4.758190 24.817900
H 17.462200 6.098440 23.382200
H 17.081200 6.286730 22.438200
H 1.675860 14.525400 4.192080
H 1.685990 14.495300 4.197970
H 1.299850 15.418800 3.828680
H 1.300910 15.385700 3.836780
H 1.395010 16.439800 3.686420
H 1.384200 16.408500 3.699850
H 2.216570 16.143900 4.186790
H 2.226640 16.167300 4.170210
H 2.422290 13.998800 4.679260
H 3.199830 14.922700 4.922790
H 2.436270 13.975600 4.686640
H 3.339130 13.980300 5.159670
H 3.350720 13.966100 5.171850
H 3.198700 14.937600 4.906840
H 4.180710 14.474800 5.504580
H 4.184300 14.469300 5.523590
H 2.367070 15.210100 4.423040
H 2.367460 15.187300 4.435850
H 3.749480 16.579500 4.884960
H 3.048930 15.879400 4.673730
H 3.730400 16.571400 4.911610
H 3.881300 15.614800 5.160670
H 3.058270 15.894800 4.654000
H 2.917850 16.852000 4.401170
H 2.898040 16.836000 4.424670
H 3.889910 15.622300 5.137800
H 4.816700 16.370700 5.479330
H 4.713660 15.350200 5.647610
H 4.796960 16.373000 5.510680
H 4.721540 15.349700 5.621590
H 1.913560 17.289500 3.823870
H 1.935840 17.314800 3.803420
H 2.747140 17.792600 4.175610
H 2.777420 17.809200 4.148340
H 3.661590 17.783100 4.660820
H 3.694260 17.790700 4.628750
H 4.411870 17.263500 5.149490
H 4.440690 17.264200 5.115920
H 26.900700 9.536540 30.294300
H 27.572500 9.564890 31.335300
H 26.612800 9.294690 31.258900
H 27.625700 9.858380 29.629200
H 26.839200 9.197640 32.264400
H 27.519300 9.271400 33.041400
H 28.470800 9.496200 0.830705
H 29.438800 9.811800 0.643184
H 28.593700 10.174000 29.441600
H 29.545200 10.398800 29.782000
H 28.079000 9.846740 30.520400
H 29.038700 10.116900 30.596800
H 30.225300 10.472500 30.559000
H 28.025800 9.553250 32.226600
H 28.532200 9.835090 31.411700
H 29.492000 10.105300 31.488100
H 28.985500 9.823450 32.303000
H 30.451700 10.375500 31.564500
H 30.163800 10.133600 32.529100
H 14.689900 11.095600 11.273700
H 12.993400 11.435500 12.276700
H 13.703500 11.252300 11.546000
H 14.219100 11.301700 12.401300
H 14.734700 11.351100 13.256700
H 16.431200 11.011200 12.253700
H 15.211500 11.179200 12.394700
H 15.727200 11.228600 13.250000
H 16.719600 11.106200 13.243400
H 15.688300 11.007400 11.532700
H 15.250400 11.400500 14.112000
H 16.476100 11.266700 14.236700
H 15.766000 11.449900 14.967400
H 12.749900 11.596100 13.270000
H 13.742300 11.473600 13.263300
H 13.038200 11.691000 14.259700
H 14.257900 11.523000 14.118700
H 13.781100 11.694900 14.980700
H 14.779600 11.606600 15.239700
H 2.672710 25.926500 29.186300
H 3.168610 26.815700 28.910300
H 3.174590 26.801000 28.951700
H 2.661330 25.943600 29.142100
H 3.917330 27.491700 29.159000
H 3.912240 27.503900 29.122700
H 2.526320 25.121200 29.756300
H 2.546180 25.102500 29.800200
H 2.799760 24.568900 30.588100
H 2.828880 24.549800 30.628600
H 4.151590 25.426700 31.322400
H 4.119880 25.441900 31.291700
H 3.451190 25.332400 30.614900
H 3.425210 25.349100 30.578400
H 3.373110 26.020800 29.893800
H 3.356000 26.036400 29.855400
H 4.050670 26.129200 30.568700
H 4.073500 26.115000 30.601300
H 3.981450 26.816600 29.845700
H 3.995420 26.803400 29.880100
H 5.301580 27.689500 30.549300
H 4.745340 26.222000 31.282000
H 4.695810 26.897600 30.587600
H 4.676120 26.909400 30.559000
H 4.773890 26.209300 31.308700
H 5.318120 27.680300 30.573900
H 3.445090 24.416500 31.449700
H 3.408380 24.434700 31.414700
H 4.229670 24.738400 32.043500
H 4.189100 24.754500 32.014600
H 4.972410 25.429100 32.250900
H 4.932730 25.442700 32.227100
H 5.474290 26.303600 32.016200
H 5.440010 26.314800 31.995200
H 5.600830 27.127600 31.402400
H 5.575020 27.137200 31.381100
H 4.692960 27.823800 29.722700
H 4.701920 27.813500 29.752800
H 16.748600 14.003100 32.543600
H 16.760800 14.004400 32.572000
H 16.783100 16.891600 32.361500
H 12.809200 18.605500 4.341690
H 12.785700 18.586100 4.378030
H 13.653700 18.068500 4.602540
H 13.676900 18.090600 4.573390
H 14.666100 18.092400 4.878870
H 14.646700 18.067600 4.895200
H 15.498700 18.583500 5.177620
H 15.511600 18.610500 5.176270
H 12.295400 19.499100 4.245850
H 12.275300 19.481600 4.281850
H 13.212800 19.759000 4.547290
H 13.197800 19.739100 4.569390
H 13.903500 19.054800 4.711060
H 13.887000 19.032500 4.729740
H 14.809500 19.290000 5.017280
H 14.820900 19.314700 5.012500
H 14.120300 19.996600 4.856930
H 14.130100 20.019000 4.848730
H 15.042700 20.254000 5.144470
H 15.047400 20.278900 5.150160
H 15.965200 20.511500 5.432010
H 15.987000 19.505900 5.385900
H 15.981300 19.478000 5.374100
H 12.273200 20.532000 4.311550
H 12.259200 20.515100 4.339770
H 12.748600 21.427500 4.521180
H 12.741800 21.409700 4.536250
H 13.431000 20.703100 4.696590
H 13.593800 21.925600 4.818670
H 14.586800 21.924600 5.111330
H 13.439400 20.723200 4.684950
H 13.594100 21.945500 4.818580
H 14.353500 20.960600 4.984130
H 14.583300 21.947300 5.124060
H 14.356700 20.983100 4.986390
H 15.454800 21.407000 5.335830
H 15.451000 21.432400 5.355760
H 15.964800 20.538800 5.451600
H 12.649800 22.190500 10.773600
H 13.821400 22.264900 10.376700
H 14.771400 22.217400 10.068100
H 13.338700 21.429500 10.639600
H 14.286300 21.116200 10.364600
H 15.940600 22.026000 9.704810
H 15.238700 21.334500 10.022500
H 16.774200 16.904800 32.339000
H 16.204000 23.005300 9.496740
H 15.958300 24.010100 9.454020
H 15.269400 24.771000 9.588090
H 12.404100 23.195200 10.730900
H 13.354100 23.147700 10.422400
H 14.304100 23.100300 10.113800
H 13.836700 23.983100 10.159500
H 14.786700 23.935600 9.850960
H 15.254000 23.052800 9.805280
H 12.667500 24.174500 10.522800
H 13.369400 24.866000 10.205200
H 14.321800 25.084300 9.863040
H 22.217600 10.698100 30.494200
H 21.783900 9.950240 29.991700
H 21.256800 10.017100 30.880200
H 21.877400 10.956300 31.398400
H 21.103400 10.466800 31.799900
H 21.364800 11.178800 32.504500
H 18.708000 13.132700 1.837210
H 18.709500 13.125300 1.872760
H 20.406100 13.004700 0.820713
H 19.688000 12.983100 1.566120
H 19.687500 13.001800 1.528690
H 20.404500 13.034600 0.782607
H 17.728400 13.392300 1.625510
H 17.732800 13.393100 1.658480
H 18.218100 13.502400 0.760608
H 17.019500 13.714900 0.980682
H 17.011300 13.710800 0.950310
H 18.224400 13.493700 0.793554
H 19.202000 13.288700 0.747375
H 19.197600 13.307200 0.712196
H 17.733200 16.312200 1.439830
H 17.765900 16.307400 1.451330
H 17.025200 16.625800 0.752745
H 17.047400 16.614900 0.772326
H 18.708500 16.048000 1.665070
H 18.745800 16.051500 1.665480
H 19.724800 15.915800 1.357410
H 19.689800 15.904000 1.368120
H 20.414000 15.918800 0.628546
H 18.782100 16.299400 7.490060
H 18.781300 16.321200 7.477050
H 19.554000 16.487300 6.826400
H 19.554900 16.505300 6.814180
H 18.157600 16.617100 8.252200
H 18.159400 16.641200 8.240300
H 17.727900 14.223500 30.813800
H 17.744100 14.205600 30.842200
H 18.722600 14.063400 30.535500
H 18.707400 14.092500 30.505200
H 19.687000 13.833000 30.717000
H 19.699400 13.795600 30.749800
H 19.718300 16.692700 30.532700
H 19.728200 16.681000 30.543700
H 20.436200 16.367400 31.230700
H 20.436700 16.385200 31.211700
H 20.671300 13.184300 32.387300
H 20.666800 13.222200 32.349900
H 21.970800 11.962400 32.805100
H 22.311100 11.704200 31.900900
H 18.217800 13.918000 31.630300
H 18.230100 13.900000 31.660900
H 17.738400 13.799400 32.525900
H 17.728200 13.807900 32.495200
H 17.010900 14.190700 31.559900
H 17.026000 14.184000 31.587600
H 20.412600 13.473800 31.427600
H 20.404100 13.514500 31.392200
H 19.693700 13.389300 32.433500
H 19.687200 13.417400 32.398300
H 18.707700 13.612600 32.446800
H 18.716100 13.594400 32.479700
H 19.207700 13.695000 31.614800
H 19.197300 13.722800 31.581900
H 18.251200 16.792900 31.441300
H 18.250700 16.792100 31.447100
H 18.232000 16.404400 33.129100
H 18.254000 16.403700 33.135000
H 17.762600 16.695800 32.314500
H 17.752400 16.700700 32.303100
H 19.229400 16.588800 31.405500
H 19.230200 16.596300 31.400100
H 19.233400 16.207900 33.088000
H 18.730700 16.496600 32.267300
H 18.742100 16.500000 32.267500
H 19.210200 16.200300 33.093200
H 19.709000 16.292500 32.231400
H 19.721600 16.304200 32.220600
H 20.440500 15.936600 33.160700
H 20.701000 16.108400 32.173600
H 20.687200 16.088400 32.195600
H 17.643600 18.328500 5.783930
H 18.355600 17.775500 5.275170
H 19.300800 17.695600 4.860510
H 20.225900 18.110400 4.651070
H 18.790700 18.658500 5.450780
H 18.290600 19.374100 5.938430
H 19.725900 18.826000 5.138730
H 19.660900 20.424600 5.802000
H 19.225800 19.541600 5.626390
H 20.161000 19.709100 5.314340
H 20.883000 18.908700 4.702970
H 21.096100 19.876500 5.002290
H 20.096000 21.307700 5.977610
H 20.808000 20.754600 5.468840
H 20.030900 18.121700 7.144670
H 20.045200 18.134400 7.138650
H 19.451200 17.353800 7.332950
H 19.443400 17.336900 7.341980
H 20.266700 17.130600 6.439030
H 20.272900 17.144100 6.429320
H 19.347400 18.202400 7.851710
H 20.729100 18.056800 6.431760
H 20.742900 18.066500 6.425590
H 17.568500 20.174500 6.549810
H 17.355500 19.206600 6.250480
H 19.941400 18.983000 7.657420
H 19.920200 18.971300 7.660250
H 20.507700 19.756000 7.462930
H 18.725700 20.257200 6.114040
H 20.535500 19.763600 7.463120
H 20.817300 19.017800 6.806540
H 20.839000 19.025300 6.803990
H 18.225700 20.972700 6.601700
H 19.150800 21.387500 6.392260
H 17.848000 17.355300 8.908600
H 17.936300 18.316300 9.283380
H 17.951900 18.338300 9.277840
H 18.649700 18.270300 8.564770
H 18.634500 18.251400 8.570470
H 17.855800 17.379500 8.899440
H 19.332700 18.186600 7.857570
H 18.745100 17.401800 8.054890
H 18.753400 17.421800 8.046010
H 18.398600 19.242500 9.276110
H 18.421900 19.260700 9.274110
H 19.243700 19.050900 8.370480
H 19.222000 19.036200 8.373160
H 19.111300 19.885800 8.888740
H 19.140000 19.899500 8.889250
H 19.883300 20.073800 8.225080
H 19.913600 20.083600 8.226380
H 17.759300 17.084300 30.626600
H 17.771600 17.089200 30.615400
H 17.047400 17.074500 31.354900
H 18.752900 16.945200 30.318400
H 18.738300 16.948600 30.318600
H 17.043700 17.063400 31.374400
H 18.899700 24.687500 9.632410
H 18.918500 24.690800 9.639900
H 19.887900 24.606600 9.286560
H 19.867500 24.597400 9.276200
H 20.861100 24.957200 9.246390
H 20.843100 24.941200 9.234320
H 21.565000 25.626800 9.517990
H 21.577400 25.648700 9.530140
H 18.198900 25.187400 10.207500
H 18.212600 25.187300 10.211700
H 19.895000 25.418000 9.870930
H 20.369800 25.579000 9.841800
H 19.398000 25.452200 10.040800
H 19.057400 25.708300 10.333500
H 17.959400 25.963000 10.848800
H 17.953000 25.963200 10.847400
H 18.226800 26.810100 11.380500
H 18.227800 26.806900 11.380600
H 18.924700 26.090000 10.648300
H 19.423100 26.854700 11.056800
H 19.909200 27.040800 11.039700
H 19.064500 26.519800 10.917900
H 19.896400 26.216900 10.449300
H 19.902100 26.229400 10.455300
H 20.394800 26.981600 10.857700
H 20.746900 26.750500 10.577100
H 21.839800 26.470600 10.051200
H 21.591600 27.271500 10.698900
H 20.739700 25.939000 9.992720
H 20.868100 26.343700 10.250200
H 21.844800 26.495800 10.061800
H 21.593900 27.246300 10.691100
H 18.553900 24.056800 12.746800
H 18.543200 24.052400 12.762900
H 19.266200 23.544400 12.223500
H 19.286100 23.558500 12.211000
H 20.267100 23.484000 11.888700
H 20.243500 23.459700 11.892700
H 21.213200 23.820800 11.859000
H 21.234000 23.853300 11.866500
H 20.229300 24.291700 12.447200
H 20.240800 24.312100 12.448600
H 19.379100 24.588000 12.882300
H 19.384100 24.598500 12.877600
H 20.214400 25.140300 13.008400
H 20.215000 25.123700 13.001700
H 21.065200 24.827300 12.566600
H 21.071000 24.853800 12.579400
H 21.927700 24.567400 12.150300
H 22.161900 25.400000 12.637200
H 22.162300 25.435100 12.664000
H 21.915300 24.531000 12.131500
H 21.050900 25.659300 13.121100
H 21.044700 25.682000 13.139200
H 18.949700 27.492500 11.664300
H 18.943100 27.501600 11.664200
H 21.875000 26.223700 13.270000
H 21.886800 26.195000 13.240500
H 18.268100 24.847300 13.366200
H 18.266500 24.845500 13.352800
H 18.514700 25.716400 13.871900
H 18.501200 25.713100 13.866500
H 19.357800 25.426700 13.437500
H 19.364800 25.420000 13.436800
H 20.188100 25.968400 13.568200
H 20.200700 25.955700 13.556200
H 19.194800 26.427300 14.150300
H 19.216800 26.426600 14.144400
H 20.161700 26.796600 14.128100
H 20.186500 26.787700 14.110800
H 21.142700 26.722100 13.805900
H 21.163800 26.702900 13.779900
H 20.885700 27.768000 11.270700
H 20.893100 27.746200 11.266200
H 19.925300 27.836400 11.622400
H 19.916300 27.852200 11.624000
H 23.331800 10.929300 29.188500
H 22.543400 10.284100 29.372500
H 22.651300 11.445900 30.996800
H 22.991600 11.187600 30.092700
H 23.937900 11.712900 29.489100
H 24.045800 12.874700 31.113400
H 23.425300 11.935400 30.595200
H 24.199300 12.425000 30.193700
H 23.085100 12.193700 31.499400
H 23.518800 12.941500 32.001900
H 22.759300 12.607600 32.621100
H 21.669500 7.397710 9.055000
H 21.685000 7.386020 9.089490
H 22.183500 7.140840 8.193890
H 22.194300 7.135330 8.223790
H 22.054500 8.576730 10.653300
H 21.633800 7.913610 9.978730
H 21.615500 7.928070 9.942430
H 22.036100 8.589800 10.618400
H 23.025400 7.228720 7.613610
H 23.019900 7.226280 7.589850
H 23.955500 7.641160 7.422440
H 23.954500 7.631140 7.404720
H 24.737000 8.246930 7.688110
H 24.735400 8.262140 7.701510
H 23.210200 7.824080 8.395500
H 22.785000 7.779610 8.673570
H 22.540000 7.902730 9.133430
H 23.386500 8.418370 9.153260
H 23.394900 8.419440 9.177380
H 23.670500 8.024750 8.278990
H 22.501000 8.173220 9.547840
H 24.065200 8.340790 8.439450
H 23.988100 9.057130 9.632940
H 24.272100 8.663520 8.758670
H 25.157600 8.908670 8.364080
H 25.156100 8.925270 8.376030
H 24.249900 8.936150 9.221330
H 25.104900 9.452860 9.265280
H 25.103600 9.439020 9.251520
H 27.006400 9.033080 9.008530
H 27.194000 8.186950 9.574720
H 27.337600 9.911610 8.572400
H 22.724700 8.498090 9.915320
H 23.579700 9.014800 9.959270
H 23.102500 8.811980 10.027500
H 22.818500 9.205600 10.901800
H 22.834400 9.197710 10.932300
H 23.753200 9.610460 10.716700
H 23.764500 9.610160 10.741200
H 24.595600 9.703550 10.131000
H 24.589600 9.695900 10.112600
H 28.068400 8.670470 9.534340
H 28.942700 9.153990 9.493950
H 28.140100 9.532800 9.033170
H 29.817100 9.637510 9.453560
H 28.098900 10.587100 8.383200
H 29.014500 10.016300 8.992790
H 29.086300 10.878700 8.491620
H 30.035200 10.708100 8.868620
H 30.691400 10.121000 9.413170
H 28.799100 7.429320 10.496300
H 27.850200 7.599930 10.119300
H 29.786600 7.720840 10.604700
H 28.870900 8.291660 9.995110
H 30.879100 9.274900 9.979370
H 29.745300 8.775180 9.954720
H 30.547900 8.396370 10.415500
