LAMMPS (3 Mar 2020)
OMP_NUM_THREADS environment is not set. Defaulting to 1 thread. (src/comm.cpp:94)
  using 1 OpenMP thread(s) per MPI task
Reading restart file ...
  restart file = 3 Mar 2020, LAMMPS = 3 Mar 2020
  restoring atom style full from restart
  orthogonal box = (0.619475 0.619475 0.619475) to (33.1705 33.1705 33.1705)
  6 by 6 by 6 MPI processor grid
  restoring pair style hybrid/overlay from restart
  restoring bond style fene from restart
  27950 atoms
  8700 bonds
Finding 1-2 1-3 1-4 neighbors ...
  special bond factors lj:   0          1          1         
  special bond factors coul: 0          1          1         
  2 = max # of 1-2 neighbors
  6 = max # of special neighbors
  special bonds CPU = 2.46761 secs
  read_restart CPU = 2.60064 secs
Resetting global fix info from restart file:
  fix style: nvt, fix ID: pt
50 rigid bodies with 950 atoms
Resetting global fix info from restart file:
  fix style: rigid/nvt, fix ID: ri
System init for write_data ...
PPPM initialization ...
  using 12-bit tables for long-range coulomb (src/kspace.cpp:332)
  G vector (1/distance) = 1.20588
  grid = 108 108 108
  stencil order = 5
  estimated absolute RMS force accuracy = 0.000129295
  estimated relative force accuracy = 0.000129295
  using double precision FFTW3
  3d grid and FFT values/proc = 12167 5832
All restart file global fix info was re-assigned
Unused restart file peratom fix info:
  fix style: STORE, fix ID: par_COMPUTE_STORE
WARNING: Neighbor exclusions used with KSpace solver may give inconsistent Coulombic energies (src/neighbor.cpp:486)
Neighbor list info ...
  update every 1 steps, delay 0 steps, check yes
  max neighbors/atom: 2000, page size: 100000
  master list distance cutoff = 2.8
  ghost atom cutoff = 2.8
  binsize = 1.4, bins = 24 24 24
  2 neighbor lists, perpetual/occasional/extra = 2 0 0
  (1) pair lj/cut, perpetual
      attributes: half, newton on
      pair build: half/bin/newton
      stencil: half/bin/3d/newton
      bin: standard
  (2) pair coul/long, perpetual, skip from (1)
      attributes: half, newton on
      pair build: skip
      stencil: none
      bin: none
PPPM initialization ...
  using 12-bit tables for long-range coulomb (src/kspace.cpp:332)
  G vector (1/distance) = 1.20588
  grid = 108 108 108
  stencil order = 5
  estimated absolute RMS force accuracy = 0.000129295
  estimated relative force accuracy = 0.000129295
  using double precision FFTW3
  3d grid and FFT values/proc = 12167 5832
WARNING: Neighbor exclusions used with KSpace solver may give inconsistent Coulombic energies (src/neighbor.cpp:486)
Neighbor list info ...
  update every 1 steps, delay 0 steps, check yes
  max neighbors/atom: 2000, page size: 100000
  master list distance cutoff = 2.8
  ghost atom cutoff = 2.8
  binsize = 1.4, bins = 24 24 24
  2 neighbor lists, perpetual/occasional/extra = 2 0 0
  (1) pair lj/cut, perpetual
      attributes: half, newton on
      pair build: half/bin/newton
      stencil: half/bin/3d/newton
      bin: standard
  (2) pair coul/long, perpetual, skip from (1)
      attributes: half, newton on
      pair build: skip
      stencil: none
      bin: none
Setting up Verlet run ...
  Unit style    : lj
  Current step  : 12000000
  Time step     : 0.005
Per MPI rank memory allocation (min/avg/max) = 10.51 | 10.52 | 10.64 Mbytes
Step Temp Press Volume 
12000000   0.80300827  -0.79129149    34490.143 
12010000   0.80107066  -0.30193756    34490.143 
12020000   0.79617941  -0.30986844    34490.143 
12030000   0.80319899  -0.30320022    34490.143 
12040000   0.80094159  -0.32654464    34490.143 
12050000   0.80055221  -0.24006132    34490.143 
12060000   0.79588611  -0.24981787    34490.143 
12070000   0.79241099   -0.3406168    34490.143 
12080000   0.81348773  -0.18605912    34490.143 
12090000   0.80574901  -0.30590591    34490.143 
12100000   0.80100704  -0.27926568    34490.143 
12110000   0.81153917  -0.30859547    34490.143 
12120000   0.79824498  -0.32184291    34490.143 
12130000   0.80120957  -0.31514006    34490.143 
12140000   0.80340171  -0.28453357    34490.143 
12150000   0.79545437    -0.222992    34490.143 
12160000    0.7983351  -0.29615852    34490.143 
12170000   0.79683671  -0.25034714    34490.143 
12180000   0.80229561   -0.2881936    34490.143 
12190000   0.79486878  -0.36320933    34490.143 
12200000   0.80331458  -0.26159365    34490.143 
12210000   0.79610634  -0.31423078    34490.143 
12220000   0.79986334  -0.28420402    34490.143 
12230000   0.80165952  -0.24783863    34490.143 
12240000   0.80717361  -0.31834736    34490.143 
12250000   0.79272468  -0.32840982    34490.143 
12260000   0.79650101  -0.30701047    34490.143 
12270000   0.79947503  -0.34763539    34490.143 
12280000   0.80745555  -0.32433976    34490.143 
12290000   0.80085213  -0.23999832    34490.143 
12300000   0.80143355  -0.36084636    34490.143 
12310000   0.80043481  -0.31858024    34490.143 
12320000   0.79741565  -0.31073719    34490.143 
12330000   0.80187588  -0.31668985    34490.143 
12340000   0.79567977  -0.26887792    34490.143 
12350000   0.80011145  -0.26065271    34490.143 
12360000   0.80128271  -0.35452542    34490.143 
12370000   0.80213116  -0.25272469    34490.143 
12380000   0.79656455  -0.33901204    34490.143 
12390000   0.80435098   -0.2256568    34490.143 
12400000   0.80138871  -0.29511068    34490.143 
12410000   0.80265956  -0.28489153    34490.143 
12420000    0.8068122  -0.25219311    34490.143 
12430000    0.7945461   -0.2576157    34490.143 
12440000   0.79734478  -0.26361686    34490.143 
12450000   0.79359913  -0.37306206    34490.143 
12460000   0.79680906  -0.33214345    34490.143 
12470000   0.80252174  -0.32927939    34490.143 
12480000   0.80102206  -0.35136914    34490.143 
12490000   0.79952865  -0.30101793    34490.143 
12500000     0.797964  -0.33531541    34490.143 
12510000   0.79838377  -0.33231615    34490.143 
12520000   0.79579178  -0.39458722    34490.143 
12530000   0.80589824  -0.30487059    34490.143 
12540000    0.8006614  -0.26118951    34490.143 
12550000   0.80497944  -0.23136936    34490.143 
12560000   0.79308803  -0.25788529    34490.143 
12570000    0.8034309  -0.35211573    34490.143 
12580000   0.79686146   -0.3020677    34490.143 
12590000   0.80707518   -0.2822547    34490.143 
12600000   0.79831499  -0.31485249    34490.143 
12610000     0.794657   -0.3447761    34490.143 
12620000   0.80010061  -0.33432993    34490.143 
12630000   0.79378892  -0.30221585    34490.143 
12640000   0.80560613  -0.32134354    34490.143 
12650000   0.80419561  -0.32423247    34490.143 
12660000   0.80183411  -0.34419172    34490.143 
12670000    0.8009073  -0.35144949    34490.143 
12680000   0.79995818   -0.3128555    34490.143 
12690000   0.80207311  -0.30806767    34490.143 
12700000   0.80187018  -0.28304823    34490.143 
12710000   0.80266732  -0.30892391    34490.143 
12720000   0.79929876  -0.31906384    34490.143 
12730000   0.79844362  -0.30571938    34490.143 
12740000    0.7981247  -0.29972803    34490.143 
12750000   0.79606967  -0.30210436    34490.143 
12760000   0.79653375  -0.29437085    34490.143 
12770000   0.80023197  -0.36127852    34490.143 
12780000   0.80346042  -0.28687637    34490.143 
12790000   0.79827756  -0.29184753    34490.143 
12800000   0.79670329  -0.26516968    34490.143 
12810000   0.80080168  -0.30717084    34490.143 
12820000   0.79544363  -0.30805296    34490.143 
12830000   0.80854444  -0.21784625    34490.143 
12840000   0.79566557  -0.31020905    34490.143 
12850000   0.79814642   -0.3535964    34490.143 
12860000   0.80006404  -0.34909777    34490.143 
12870000   0.80473103  -0.28725846    34490.143 
12880000   0.79859559  -0.26777536    34490.143 
12890000   0.80803713  -0.39339723    34490.143 
12900000   0.80362675  -0.27041513    34490.143 
12910000   0.79202864  -0.32246129    34490.143 
12920000   0.79995166  -0.36178659    34490.143 
12930000   0.80371977  -0.29465674    34490.143 
12940000   0.79186001  -0.30751705    34490.143 
12950000   0.80485831  -0.33275334    34490.143 
12960000     0.805986  -0.32364781    34490.143 
12970000   0.79631156   -0.3396455    34490.143 
12980000   0.79882157  -0.28795201    34490.143 
12990000   0.79099629  -0.27465956    34490.143 
13000000   0.79780929  -0.31346872    34490.143 
Loop time of 11333.7 on 216 procs for 1000000 steps with 27950 atoms

Performance: 38116.282 tau/day, 88.232 timesteps/s
99.9% CPU use with 216 MPI tasks x 1 OpenMP threads

MPI task timing breakdown:
Section |  min time  |  avg time  |  max time  |%varavg| %total
---------------------------------------------------------------
Pair    | 158.9      | 198.2      | 354.22     | 222.1 |  1.75
Bond    | 1.5289     | 2.0457     | 3.1105     |  19.3 |  0.02
Kspace  | 9947.4     | 10182      | 10287      |  61.9 | 89.84
Neigh   | 115.61     | 121.8      | 127.71     |  21.8 |  1.07
Comm    | 282.94     | 369.47     | 507.12     | 237.1 |  3.26
Output  | 0.015238   | 0.017868   | 0.02763    |   1.0 |  0.00
Modify  | 304.98     | 355.89     | 404.4      | 113.2 |  3.14
Other   |            | 104.6      |            |       |  0.92

Nlocal:    129.398 ave 183 max 112 min
Histogram: 36 68 67 19 10 3 3 3 6 1
Nghost:    957.051 ave 1069 max 882 min
Histogram: 5 23 42 49 40 25 16 7 7 2
Neighs:    4752.91 ave 9353 max 3689 min
Histogram: 52 105 28 12 5 3 8 2 0 1

Total # of neighbors = 1026629
Ave neighs/atom = 36.7309
Ave special neighs/atom = 0.62254
Neighbor list builds = 134435
Dangerous builds = 0
PPPM initialization ...
  using 12-bit tables for long-range coulomb (src/kspace.cpp:332)
  G vector (1/distance) = 1.20588
  grid = 108 108 108
  stencil order = 5
  estimated absolute RMS force accuracy = 0.000129295
  estimated relative force accuracy = 0.000129295
  using double precision FFTW3
  3d grid and FFT values/proc = 12167 5832
WARNING: Neighbor exclusions used with KSpace solver may give inconsistent Coulombic energies (src/neighbor.cpp:486)
Neighbor list info ...
  update every 1 steps, delay 0 steps, check yes
  max neighbors/atom: 2000, page size: 100000
  master list distance cutoff = 2.8
  ghost atom cutoff = 2.8
  binsize = 1.4, bins = 24 24 24
  7 neighbor lists, perpetual/occasional/extra = 2 5 0
  (1) pair lj/cut, perpetual
      attributes: half, newton on
      pair build: half/bin/newton
      stencil: half/bin/3d/newton
      bin: standard
  (2) pair coul/long, perpetual, skip from (1)
      attributes: half, newton on
      pair build: skip
      stencil: none
      bin: none
  (3) compute rdf, occasional, copy from (1)
      attributes: half, newton on
      pair build: copy
      stencil: none
      bin: none
  (4) compute rdf, occasional, copy from (1)
      attributes: half, newton on
      pair build: copy
      stencil: none
      bin: none
  (5) compute rdf, occasional, copy from (1)
      attributes: half, newton on
      pair build: copy
      stencil: none
      bin: none
  (6) compute rdf, occasional, copy from (1)
      attributes: half, newton on
      pair build: copy
      stencil: none
      bin: none
  (7) compute rdf, occasional, copy from (1)
      attributes: half, newton on
      pair build: copy
      stencil: none
      bin: none
Setting up Verlet run ...
  Unit style    : lj
  Current step  : 0
  Time step     : 0.005
Per MPI rank memory allocation (min/avg/max) = 18.07 | 19.42 | 20.18 Mbytes
Step Temp Press PotEng KinEng E_pair E_bond TotEng 
       0   0.79780929  -0.47391716  -0.21741209    1.1602773   -6.6327085    6.4152965   0.94286522 
   10000   0.79049631  -0.35652892  -0.23350663    1.1496418   -6.6512228    6.4177162   0.91613521 
   20000    0.7977618  -0.30791395  -0.21629699    1.1602083   -6.6332095    6.4169125   0.94391126 
   30000   0.80075265  -0.35234192  -0.22031858    1.1645579   -6.6383899    6.4180714   0.94423935 
   40000   0.79798923  -0.36711301  -0.22278251     1.160539   -6.6409832    6.4182007    0.9377565 
   50000   0.79314572  -0.27621301  -0.21514845    1.1534949   -6.6352209    6.4200724   0.93834649 
   60000   0.79483525  -0.23768212  -0.21658406    1.1559521    -6.635639    6.4190549   0.93936802 
   70000   0.80328698  -0.29629103  -0.21754189    1.1682437   -6.6371286    6.4195868   0.95070178 
   80000   0.80176457   -0.2507121  -0.21659992    1.1660296   -6.6335163    6.4169163   0.94942967 
   90000   0.80386598  -0.32519272  -0.21922848    1.1690857   -6.6369543    6.4177258   0.94985725 
  100000   0.80640415  -0.29640653   -0.2234824    1.1727771   -6.6393521    6.4158697   0.94929467 
  110000   0.80486073  -0.32139265  -0.21758705    1.1705324   -6.6355043    6.4179172   0.95294538 
  120000   0.80415683  -0.30853418  -0.21722705    1.1695087   -6.6357894    6.4185623   0.95228168 
  130000   0.80379375  -0.31215952   -0.2234644    1.1689807   -6.6412378    6.4177734   0.94551628 
  140000   0.80016356  -0.31591673  -0.21759806    1.1637012   -6.6330917    6.4154937   0.94610313 
  150000   0.79849184  -0.33955104   -0.2217893      1.16127   -6.6425204    6.4207311   0.93948066 
  160000   0.79471529   -0.3189704  -0.22226301    1.1557776   -6.6390426    6.4167796   0.93351461 
  170000   0.79542734  -0.28072826  -0.21600209    1.1568132   -6.6362639    6.4202618   0.94081108 
  180000   0.79667547  -0.32149411   -0.2230969    1.1586284   -6.6412381    6.4181412   0.93553146 
  190000   0.80708741  -0.35178826  -0.21823551    1.1737708   -6.6370328    6.4187973   0.95553526 
  200000   0.80620444   -0.2995424  -0.21858161    1.1724866   -6.6378457    6.4192641   0.95390502 
  210000   0.80254547   -0.2467618  -0.20959247    1.1671653   -6.6287294    6.4191369    0.9575728 
  220000   0.80140574   -0.3093262  -0.22582583    1.1655077   -6.6402065    6.4143807    0.9396819 
  230000   0.79958542  -0.28904705   -0.2285661    1.1628604    -6.644207    6.4156409   0.93429429 
  240000   0.79653922  -0.33239975  -0.21279347    1.1584302   -6.6347364     6.421943   0.94563675 
  250000   0.79865372  -0.37283089  -0.21350468    1.1615054   -6.6300352    6.4165305   0.94800071 
  260000   0.80022327  -0.31524542   -0.2315829     1.163788   -6.6481275    6.4165446   0.93220514 
  270000   0.80848675   -0.2664806  -0.23582306    1.1758059   -6.6509754    6.4151524    0.9399828 
  280000   0.80577638   -0.2495617  -0.21944606    1.1718641   -6.6401488    6.4207028   0.95241802 
  290000   0.80094702  -0.31909233  -0.21482827    1.1648406   -6.6313343     6.416506   0.95001234 
  300000   0.79779165  -0.33441955  -0.22411506    1.1602517   -6.6423833    6.4182682   0.93613661 
  310000   0.79551251  -0.24284099  -0.21852237     1.156937   -6.6357874    6.4172651   0.93841467 
  320000   0.79886392  -0.29339771  -0.22314893    1.1618111   -6.6427771    6.4196281   0.93866216 
  330000    0.8016474   -0.2536427  -0.21851998    1.1658592   -6.6352843    6.4167643   0.94733922 
  340000   0.80090807  -0.29311528  -0.22570034     1.164784   -6.6432666    6.4175662   0.93908361 
  350000   0.80253059  -0.37338458    -0.227071    1.1671436   -6.6447475    6.4176765   0.94007264 
  360000   0.80329537  -0.22833936   -0.2158731    1.1682559   -6.6329041     6.417031   0.95238278 
  370000    0.7990893  -0.30169032  -0.22183395    1.1621389   -6.6390316    6.4171977   0.94030492 
  380000   0.80082224  -0.34368218  -0.22159891    1.1646591    -6.635111     6.413512   0.94306022 
  390000   0.80076896  -0.30104821  -0.22265227    1.1645816   -6.6363803     6.413728   0.94192937 
  400000   0.80097629  -0.35849097  -0.22654427    1.1648832   -6.6457499    6.4192057   0.93833891 
  410000    0.8054386  -0.33353164  -0.22085954    1.1713728   -6.6381604    6.4173009   0.95051331 
  420000   0.79983732  -0.32580057  -0.21156529    1.1632267   -6.6323356    6.4207703   0.95166144 
  430000      0.79652   -0.3238886  -0.21493723    1.1584023   -6.6341091    6.4191718   0.94346504 
  440000   0.79325916  -0.28492333  -0.21251002    1.1536599   -6.6344682    6.4219582    0.9411499 
  450000   0.80460675  -0.27197924  -0.22193016    1.1701631    -6.641377    6.4194468   0.94823291 
  460000   0.80112746   -0.3252292  -0.22110598     1.165103   -6.6392121    6.4181061   0.94399704 
  470000   0.80289777  -0.35478082  -0.21823692    1.1676776   -6.6339999     6.415763   0.94944072 
  480000   0.80311229   -0.2768716  -0.21777814    1.1679896   -6.6343295    6.4165514   0.95021148 
  490000   0.80030023  -0.37248893  -0.21633022       1.1639   -6.6365241    6.4201939   0.94756974 
  500000   0.80007529  -0.27932043  -0.21121717    1.1635728   -6.6316378    6.4204206   0.95235565 
  510000    0.8007688  -0.27846522  -0.21070579    1.1645814   -6.6277778     6.417072   0.95387563 
  520000   0.80382183  -0.33957136  -0.22635083    1.1690215   -6.6439829    6.4176321    0.9426707 
  530000   0.79941728  -0.24595049  -0.22292396    1.1626159    -6.641758     6.418834   0.93969189 
  540000   0.80428848  -0.32800233  -0.21153887    1.1697002   -6.6295621    6.4180232   0.95816132 
  550000   0.79525861  -0.25971618  -0.21952575    1.1565678   -6.6372199    6.4176942   0.93704203 
  560000   0.79920775  -0.31265669  -0.22492628    1.1623111   -6.6414682     6.416542   0.93738486 
  570000   0.79965332  -0.31749128   -0.2230843    1.1629591   -6.6394817    6.4163974   0.93987484 
  580000   0.80246748  -0.33160741  -0.22137743    1.1670519   -6.6384551    6.4170777   0.94567442 
  590000   0.79294657   -0.2731261  -0.21284005    1.1532053     -6.63332      6.42048   0.94036527 
  600000   0.80347571  -0.24585975  -0.21940214    1.1685182   -6.6387782    6.4193761   0.94911602 
  610000   0.79976689  -0.35806104  -0.22080232    1.1631243   -6.6380585    6.4172562   0.94232198 
  620000   0.80178013  -0.20419345  -0.21733386    1.1660522   -6.6360053    6.4186715   0.94871837 
  630000   0.80024199   -0.3068973  -0.21023738    1.1638153    -6.630498    6.4202606   0.95357787 
  640000   0.79859207  -0.38418188  -0.21430575    1.1614157   -6.6362525    6.4219468   0.94710998 
  650000   0.80410124  -0.35835078  -0.22102969    1.1694279   -6.6370889    6.4160592   0.94839819 
  660000   0.80221226  -0.30241186  -0.21894123    1.1666807   -6.6364874    6.4175462   0.94773944 
  670000   0.80670428   -0.3711695  -0.22474998    1.1732136   -6.6430268    6.4182768   0.94846359 
  680000   0.80054574    -0.323662  -0.21888977     1.164257   -6.6339536    6.4150638   0.94536724 
  690000   0.79609531  -0.30350787  -0.21991015    1.1577846   -6.6353943    6.4154842   0.93787447 
  700000   0.79512197  -0.34511528  -0.22513812    1.1563691   -6.6440857    6.4189476   0.93123094 
  710000   0.79923928  -0.32868686  -0.22025995     1.162357   -6.6377715    6.4175115   0.94209704 
  720000   0.80326419  -0.28423334  -0.21827457    1.1682105   -6.6358613    6.4175867   0.94993596 
  730000   0.80446194  -0.27094669  -0.21419775    1.1699525   -6.6320807     6.417883    0.9557547 
  740000   0.79429521  -0.33874047   -0.2262933    1.1551667   -6.6443235    6.4180302   0.92887339 
  750000   0.79752756  -0.27431266  -0.21501231    1.1598676   -6.6300943    6.4150819   0.94485527 
  760000    0.8024479  -0.29974758  -0.21750836    1.1670234   -6.6332053     6.415697   0.94951502 
  770000   0.79762793  -0.37540361  -0.22690846    1.1600136   -6.6459183    6.4190098    0.9331051 
  780000   0.79521075  -0.31758524  -0.22871657    1.1564982   -6.6472267    6.4185101   0.92778162 
  790000   0.79586304  -0.28424195  -0.21522434    1.1574468   -6.6332102    6.4179858   0.94222249 
  800000    0.7961341  -0.28259068  -0.22453866     1.157841   -6.6421508    6.4176121   0.93330239 
  810000   0.80262771  -0.31290347  -0.22098983    1.1672849   -6.6364692    6.4154793   0.94629505 
  820000   0.79817812  -0.25545681  -0.22626638    1.1608137   -6.6427545    6.4164881   0.93454733 
  830000   0.80124387  -0.32268669  -0.20797765    1.1652723   -6.6271135    6.4191359   0.95729467 
  840000   0.79441032  -0.35172443  -0.23175855    1.1553341   -6.6469181    6.4151596   0.92357555 
  850000   0.79576592  -0.26746813    -0.228168    1.1573056   -6.6449077    6.4167397   0.92913758 
  860000   0.80230671  -0.31377854    -0.214539     1.166818   -6.6338281    6.4192891   0.95227904 
  870000    0.7958831  -0.24332469  -0.21347361     1.157476   -6.6326827    6.4192091   0.94400239 
  880000   0.79415413  -0.20777747  -0.21258436    1.1549615   -6.6323647    6.4197803   0.94237715 
  890000   0.79658842  -0.25356404  -0.22843913    1.1585018   -6.6443342    6.4158951   0.93006264 
  900000   0.79861275  -0.31770177  -0.21866306    1.1614458   -6.6355617    6.4168986   0.94278275 
  910000   0.80473941  -0.25125978  -0.21872401     1.170356    -6.639943     6.421219   0.95163197 
  920000   0.80524377  -0.26953096  -0.22450684    1.1710895   -6.6409621    6.4164552   0.94658266 
  930000   0.79485653  -0.25368984  -0.22272748     1.155983   -6.6431865     6.420459   0.93325554 
  940000   0.80465912  -0.26356767  -0.21743325    1.1702392   -6.6357061    6.4182728   0.95280597 
  950000     0.801377  -0.24102293  -0.21934676    1.1654659   -6.6372689    6.4179222   0.94611918 
  960000   0.80376194  -0.25833313   -0.2140889    1.1689344   -6.6312707    6.4171818   0.95484553 
  970000   0.80036348   -0.3681188  -0.22642231    1.1639919   -6.6425353    6.4161129   0.93756963 
  980000   0.79467205  -0.34331947  -0.21939552    1.1557147   -6.6375943    6.4181987   0.93631922 
  990000   0.80021759  -0.28565568  -0.22160879    1.1637798   -6.6404259    6.4188172   0.94217098 
 1000000   0.79712786  -0.32509385  -0.22357281    1.1592863   -6.6398883    6.4163155   0.93571348 
 1010000   0.79810808  -0.35605674  -0.22064367    1.1607119   -6.6362867     6.415643   0.94006818 
 1020000   0.80070344  -0.28219927  -0.21302082    1.1644864   -6.6318214    6.4188006   0.95146554 
 1030000   0.79539338  -0.33120817  -0.21409286    1.1567638   -6.6348157    6.4207228   0.94267093 
 1040000   0.79788024  -0.30397646   -0.2178747    1.1603805   -6.6359767     6.418102   0.94250579 
 1050000    0.8001854  -0.31432922  -0.22327126     1.163733   -6.6422472     6.418976    0.9404617 
 1060000   0.80087314  -0.28885085  -0.21682334    1.1647332   -6.6350855    6.4182621   0.94790982 
 1070000   0.79661872  -0.23338162  -0.21665275    1.1585458   -6.6367279    6.4200751   0.94189308 
 1080000   0.79626275  -0.40745666  -0.22669263    1.1580281   -6.6418855    6.4151928   0.93133551 
 1090000   0.79616024  -0.31257636  -0.22744172    1.1578791   -6.6437216    6.4162799   0.93043734 
 1100000   0.79905588  -0.32909185  -0.22538614    1.1620903   -6.6449356    6.4195495   0.93670413 
 1110000    0.8033197  -0.39880763  -0.22086153    1.1682913   -6.6392651    6.4184035   0.94742973 
 1120000   0.80405939  -0.27292938  -0.21776837     1.169367   -6.6367615    6.4189932   0.95159865 
 1130000    0.7999993  -0.27455973  -0.22708141    1.1634623   -6.6440063    6.4169249    0.9363809 
 1140000   0.79327397  -0.31173771  -0.21679558    1.1536815   -6.6368117    6.4200162   0.93688589 
 1150000   0.80256572  -0.25218431  -0.22011606    1.1671947   -6.6373873    6.4172713   0.94707867 
 1160000   0.79982535  -0.23419714  -0.22180191    1.1632093     -6.63623    6.4144281   0.94140742 
 1170000   0.79813578  -0.34710643  -0.21388654    1.1607521    -6.633196    6.4193095    0.9468656 
 1180000   0.80641072  -0.28773453  -0.21919378    1.1727866   -6.6378637    6.4186699   0.95359285 
 1190000   0.79636728  -0.32083221  -0.21622954    1.1581802   -6.6355924    6.4193629   0.94195061 
 1200000   0.80275159  -0.38092025  -0.22246148     1.167465   -6.6402481    6.4177866   0.94500356 
 1210000    0.8017599    -0.333378  -0.23241041    1.1660228   -6.6477069    6.4152965   0.93361239 
 1220000   0.79796068   -0.3283419  -0.23515981    1.1604975   -6.6488238    6.4136639   0.92533768 
 1230000   0.80678422  -0.26834442  -0.22748569    1.1733298   -6.6431978    6.4157121   0.94584413 
 1240000   0.80474232  -0.33713648  -0.22467704    1.1703602   -6.6453125    6.4206354   0.94568319 
 1250000   0.80366934  -0.31627422  -0.21828938    1.1687998   -6.6344173     6.416128   0.95051038 
 1260000   0.79494889  -0.26321391  -0.21810205    1.1561173   -6.6348464    6.4167444    0.9380153 
 1270000   0.79941981  -0.29875535  -0.21899279    1.1626195   -6.6359498     6.416957   0.94362675 
 1280000   0.80157911  -0.31464196  -0.22104034    1.1657599   -6.6400626    6.4190223   0.94471954 
 1290000   0.79858767  -0.35676242  -0.22120013    1.1614093    -6.637665    6.4164649    0.9402092 
 1300000    0.8058778  -0.29628614  -0.21991023    1.1720116   -6.6379571    6.4180469   0.95210135 
 1310000   0.79899124  -0.27738171  -0.22262393    1.1619963   -6.6405419     6.417918   0.93937234 
 1320000   0.80057439  -0.29187465  -0.21821542    1.1642987   -6.6358192    6.4176038   0.94608327 
 1330000   0.80453618  -0.30457616  -0.22523353    1.1700604   -6.6443216    6.4190881    0.9448269 
 1340000   0.80029359  -0.23970326  -0.22221234    1.1638903   -6.6386126    6.4164003   0.94167796 
 1350000   0.80621024  -0.31213749   -0.2145547    1.1724951   -6.6324406    6.4178859   0.95794037 
 1360000   0.80087018  -0.36112121  -0.22411789    1.1647289    -6.643385    6.4192671   0.94061097 
 1370000   0.80426548  -0.32757282  -0.21828865    1.1696667   -6.6377856     6.419497   0.95137809 
 1380000   0.79752054  -0.40713785   -0.2195402    1.1598574   -6.6374192     6.417879   0.94031718 
 1390000    0.7945988   -0.3331863  -0.22669109    1.1556082   -6.6431947    6.4165036   0.92891711 
 1400000   0.79714604  -0.36101802  -0.22588461    1.1593127   -6.6472283    6.4213437   0.93342811 
 1410000   0.80758402  -0.26035617  -0.21343339     1.174493   -6.6327334       6.4193   0.96105959 
 1420000   0.79491287  -0.25083359  -0.23116608     1.156065   -6.6491596    6.4179935   0.92489888 
 1430000   0.80668984  -0.29335836  -0.22038233    1.1731926   -6.6358491    6.4154667   0.95281022 
 1440000   0.80473984  -0.28869798   -0.2209837    1.1703566   -6.6399915    6.4190078   0.94937291 
 1450000   0.80494284  -0.32514456  -0.21924102    1.1706518   -6.6359058    6.4166648   0.95141082 
 1460000    0.7996186  -0.34588876  -0.22152814    1.1629086    -6.640525    6.4189969    0.9413805 
 1470000   0.79352982  -0.32329611  -0.21931408    1.1540536   -6.6349963    6.4156823   0.93473947 
 1480000   0.80807587  -0.27124176  -0.22516927    1.1752083   -6.6414974    6.4163281   0.95003902 
 1490000   0.80083227  -0.33048956  -0.21748946    1.1646737     -6.63367    6.4161806   0.94718427 
 1500000   0.79528863  -0.29566173  -0.21780113    1.1566115   -6.6324814    6.4146802   0.93881032 
 1510000   0.79549673  -0.33911328  -0.22079287    1.1569141   -6.6412663    6.4204734   0.93612123 
 1520000   0.79870804  -0.31941009  -0.21913281    1.1615844   -6.6373854    6.4182526   0.94245157 
 1530000   0.80266378  -0.35325208  -0.21928275    1.1673373   -6.6403213    6.4210385   0.94805458 
 1540000   0.79919419  -0.29831612  -0.21556598    1.1622914    -6.636518     6.420952   0.94672543 
 1550000    0.7949121  -0.36789461  -0.22899832    1.1560638   -6.6431015    6.4141031   0.92706553 
 1560000   0.79930934  -0.29849178   -0.2257264    1.1624589   -6.6398511    6.4141247   0.93673248 
 1570000   0.79454909  -0.24815552  -0.21106011    1.1555359   -6.6302117    6.4191516   0.94447579 
 1580000   0.79907145  -0.27615094  -0.22427334    1.1621129   -6.6401623     6.415889   0.93783957 
 1590000   0.80078803  -0.36119557  -0.22774123    1.1646094   -6.6453419    6.4176007   0.93686815 
 1600000   0.80312045  -0.31129743  -0.21480901    1.1680015   -6.6355841     6.420775   0.95319247 
 1610000   0.79619109  -0.31240989  -0.22689107    1.1579239   -6.6448087    6.4179176   0.93103285 
 1620000   0.79978978  -0.36710695  -0.22718645    1.1631576   -6.6444342    6.4172477   0.93597115 
 1630000   0.80774497  -0.28141285  -0.21582265    1.1747271   -6.6344961    6.4186735   0.95890441 
 1640000   0.80248553  -0.29568559  -0.22454419    1.1670781   -6.6427765    6.4182323   0.94253392 
 1650000   0.80077637  -0.33589458  -0.21886499    1.1645924   -6.6363793    6.4175143   0.94572744 
 1660000    0.8036626  -0.32782902  -0.22154463    1.1687899   -6.6387518    6.4172072   0.94724532 
 1670000   0.79592411  -0.37019775  -0.23291716    1.1575356   -6.6489648    6.4160477   0.92461848 
 1680000   0.79677579  -0.31667101  -0.21256853    1.1587743   -6.6308177    6.4182492   0.94620574 
 1690000    0.8005264  -0.33966907  -0.22043982    1.1642289   -6.6381422    6.4177024   0.94378906 
 1700000   0.80634383  -0.31546599  -0.22034049    1.1726893   -6.6373168    6.4169763   0.95234886 
 1710000   0.78988725  -0.21898451  -0.22433739    1.1487561   -6.6387281    6.4143907   0.92441868 
 1720000   0.80231067  -0.30014169  -0.21380951    1.1668238   -6.6311866    6.4173771    0.9530143 
 1730000   0.80240177  -0.29642615  -0.22100275    1.1669563   -6.6387342    6.4177314   0.94595354 
 1740000   0.79784046  -0.29656061  -0.22312368    1.1603226   -6.6388156    6.4156919   0.93719896 
 1750000   0.79232174  -0.33116591  -0.22863642    1.1522966   -6.6433356    6.4146991   0.92366019 
 1760000   0.79090157  -0.34148194  -0.21707685    1.1502312    -6.635601    6.4185241   0.93315436 
 1770000   0.79860277  -0.30262516  -0.21835406    1.1614313   -6.6324454    6.4140913   0.94307724 
 1780000   0.79907514  -0.25420514  -0.21673026    1.1621183   -6.6331182    6.4163879   0.94538801 
 1790000   0.79684351  -0.41055436  -0.22193487    1.1588728   -6.6382262    6.4162914   0.93693788 
 1800000   0.80347434  -0.25161234  -0.22056847    1.1685162   -6.6372178    6.4166493    0.9479477 
 1810000   0.79623388  -0.31258963  -0.22021518    1.1579861   -6.6399277    6.4197125   0.93777097 
 1820000   0.80136853  -0.27646774  -0.21549147    1.1654536   -6.6354132    6.4199217   0.94996215 
 1830000    0.8043133   -0.3448247  -0.21748722    1.1697363   -6.6342327    6.4167455   0.95224907 
 1840000   0.80270701  -0.28895821   -0.2244491    1.1674002   -6.6413018    6.4168527   0.94295112 
 1850000   0.80228139  -0.27076225  -0.21347805    1.1667812   -6.6310777    6.4175997   0.95330317 
 1860000   0.80461546  -0.39386307   -0.2264691    1.1701757   -6.6428882    6.4164191   0.94370662 
 1870000   0.79622369  -0.26389253  -0.20835758    1.1579713   -6.6301681    6.4218105   0.94961375 
 1880000   0.80827498  -0.25282241  -0.21703723    1.1754979   -6.6355892     6.418552   0.95846064 
 1890000   0.80289664  -0.29770992  -0.21898252     1.167676   -6.6403515     6.421369   0.94869348 
 1900000   0.79603144  -0.34074062  -0.22440309    1.1576917   -6.6375245    6.4131214   0.93328864 
 1910000   0.79127648  -0.31835384  -0.22091805    1.1507765   -6.6382627    6.4173446   0.92985841 
 1920000   0.80842469  -0.29842598   -0.2217372    1.1757156   -6.6411834    6.4194462    0.9539784 
 1930000   0.80037677  -0.30324537  -0.22661874    1.1640113   -6.6441696    6.4175509   0.93739255 
 1940000   0.79770296   -0.2812373  -0.21622771    1.1601227   -6.6330067     6.416779   0.94389498 
 1950000    0.7985655  -0.25279256  -0.22273252    1.1613771   -6.6386786     6.415946   0.93864457 
 1960000   0.80094623   -0.3160641  -0.21791472    1.1648395   -6.6381369    6.4202222   0.94692474 
 1970000   0.79900389  -0.31499832  -0.22075417    1.1620146   -6.6374363    6.4166821   0.94126048 
 1980000   0.79870831  -0.29019939  -0.21975805    1.1615848   -6.6375013    6.4177432   0.94182673 
 1990000   0.79653112  -0.34462186  -0.22740143    1.1584184   -6.6449676    6.4175662   0.93101701 
 2000000   0.80734483  -0.28626573  -0.22236406    1.1741451   -6.6404654    6.4181013   0.95178107 
 2010000   0.80075677   -0.4129948  -0.23032334    1.1645639   -6.6456867    6.4153634   0.93424058 
 2020000   0.79318277  -0.34014058  -0.23022356    1.1535488   -6.6484772    6.4182536   0.92332526 
 2030000    0.7957313  -0.33813064  -0.22571556    1.1572552   -6.6418695    6.4161539   0.93153968 
 2040000   0.80634726  -0.30611397  -0.22324843    1.1726943   -6.6389887    6.4157403    0.9494459 
 2050000   0.79101572  -0.28887724  -0.21046958    1.1503972    -6.630693    6.4202234   0.93992765 
 2060000   0.79460833  -0.29410451  -0.22353935    1.1556221   -6.6410974    6.4175581   0.93208272 
 2070000   0.80174583  -0.30380789  -0.22784395    1.1660023   -6.6441709    6.4163269   0.93815838 
 2080000   0.80132771  -0.29061736   -0.2119043    1.1653943   -6.6312743      6.41937   0.95348995 
 2090000    0.7995193  -0.28833474  -0.21577204    1.1627642   -6.6358539    6.4200819   0.94699219 
 2100000   0.79899169   -0.2111296  -0.21448306    1.1619969    -6.633143      6.41866   0.94751384 
 2110000   0.80360421  -0.30141211  -0.22493059     1.168705   -6.6392796     6.414349   0.94377445 
 2120000   0.80484048  -0.31439564   -0.2259343     1.170503   -6.6402516    6.4143173   0.94456867 
 2130000   0.80134724  -0.28225053  -0.22942177    1.1654227    -6.645845    6.4164233   0.93600089 
 2140000   0.79922515  -0.23511455   -0.2194662    1.1623364   -6.6393549    6.4198887   0.94287024 
 2150000   0.80272214  -0.22927819  -0.21248258    1.1674222   -6.6288109    6.4163283   0.95493963 
 2160000   0.80056709  -0.28030141  -0.22827544    1.1642881   -6.6443922    6.4161168   0.93601262 
 2170000   0.80294936  -0.35894423  -0.22862542    1.1677527   -6.6474176    6.4187921   0.93912725 
 2180000   0.79975799  -0.38230034    -0.221756    1.1631114   -6.6390262    6.4172702   0.94135537 
 2190000    0.7983448  -0.27910553  -0.23002067    1.1610561   -6.6422656    6.4122449   0.93103545 
 2200000   0.80299927  -0.29125806  -0.21918562    1.1678252   -6.6381957      6.41901   0.94863963 
 2210000   0.80286727  -0.22420815   -0.2158212    1.1676333   -6.6303789    6.4145577   0.95181208 
 2220000   0.80345703  -0.26474043  -0.22164815     1.168491   -6.6393464    6.4176982   0.94684284 
 2230000    0.8059855  -0.38558801  -0.21727709    1.1721682   -6.6323701     6.415093   0.95489112 
 2240000    0.8004184  -0.30302686  -0.22157352    1.1640718   -6.6406797    6.4191062    0.9424983 
 2250000   0.80559444  -0.32703848  -0.22735685    1.1715995   -6.6457778    6.4184209   0.94424263 
 2260000   0.79623529  -0.31857486  -0.23023552    1.1579882   -6.6491274    6.4188919   0.92775268 
 2270000   0.80093326  -0.29105479  -0.21335324    1.1648206   -6.6351833      6.42183   0.95146735 
 2280000   0.79740213  -0.36806889  -0.23243889    1.1596852   -6.6493438    6.4169049   0.92724628 
 2290000   0.79814798  -0.30084354  -0.21807654    1.1607699   -6.6405059    6.4224293   0.94269333 
 2300000   0.80540315  -0.26064773  -0.23187501    1.1713213   -6.6485795    6.4167045   0.93944627 
 2310000   0.79912413  -0.28668877  -0.22627285    1.1621895   -6.6445239     6.418251   0.93591667 
 2320000   0.80529969  -0.24565038   -0.2123825    1.1711708   -6.6303688    6.4179863   0.95878832 
 2330000   0.79393077  -0.31259044  -0.22128092    1.1546367   -6.6424758    6.4211949   0.93335575 
 2340000   0.80420789  -0.26648019  -0.21531856     1.169583   -6.6364386      6.42112   0.95426441 
 2350000   0.80986186  -0.30116938  -0.21784477    1.1778057   -6.6368945    6.4190497   0.95996094 
 2360000   0.80574218  -0.31384431  -0.22578275    1.1718143    -6.643186    6.4174033    0.9460316 
 2370000   0.80085723  -0.27984253   -0.2105259      1.16471   -6.6316092    6.4210833   0.95418412 
 2380000   0.80686717  -0.22079529    -0.205241    1.1734504   -6.6222234    6.4169824   0.96820944 
 2390000   0.79287461   -0.2975445  -0.22149384    1.1531007   -6.6372215    6.4157277   0.93160682 
 2400000   0.80224662  -0.28217181  -0.22417262    1.1667307   -6.6387269    6.4145543   0.94255803 
 2410000   0.80065434  -0.26692213  -0.22787065    1.1644149   -6.6454946    6.4176239    0.9365443 
 2420000   0.79661468  -0.37816366   -0.2315522      1.15854   -6.6499205    6.4183682   0.92698776 
 2430000   0.79884533  -0.37287046  -0.21945601    1.1617841   -6.6373391     6.417883   0.94232804 
 2440000   0.80285054   -0.3332715  -0.22212409     1.167609   -6.6396451     6.417521   0.94548486 
 2450000   0.79753448  -0.27631851  -0.21712693    1.1598777   -6.6349631    6.4178362   0.94275073 
 2460000   0.80331346  -0.35961453  -0.22057563    1.1682822   -6.6369465    6.4163709   0.94770655 
 2470000   0.79870336  -0.30013278  -0.21489722    1.1615776   -6.6322075    6.4173103   0.94668037 
 2480000   0.79612391  -0.30572699  -0.21974067    1.1578262   -6.6390594    6.4193187   0.93808555 
 2490000   0.80120677  -0.24128968  -0.22214223    1.1652184   -6.6391334    6.4169912   0.94307614 
 2500000   0.80294299  -0.29851962  -0.21303671    1.1677434   -6.6333921    6.4203554   0.95470669 
 2510000   0.79391176  -0.32985282  -0.22133188     1.154609   -6.6378374    6.4165055   0.93327714 
 2520000   0.80363615  -0.27550639  -0.21970602    1.1687515   -6.6375716    6.4178656   0.94904546 
 2530000   0.80753377  -0.32284566  -0.22231415    1.1744199   -6.6409074    6.4185933   0.95210575 
 2540000   0.79952309  -0.37744924  -0.22412268    1.1627697    -6.643042    6.4189194   0.93864706 
 2550000   0.79778267  -0.38272711  -0.22118871    1.1602386   -6.6410446    6.4198559    0.9390499 
 2560000   0.79914932  -0.29023072   -0.2128394    1.1622262   -6.6312239    6.4183845   0.94938675 
 2570000   0.80664959  -0.28945114  -0.22718509     1.173134    -6.640298    6.4131129   0.94594893 
 2580000   0.80305854   -0.2787484  -0.21764357    1.1679115   -6.6337502    6.4161067   0.95026789 
 2590000   0.79768849  -0.28589904  -0.21785314    1.1601016   -6.6378166    6.4199635   0.94224849 
 2600000   0.79979773  -0.30164129   -0.2172266    1.1631692   -6.6369614    6.4197348   0.94594256 
 2610000   0.79189763  -0.39591186  -0.23076451    1.1516798   -6.6461049    6.4153404   0.92091529 
 2620000   0.81060751  -0.26076908   -0.2134587    1.1788901   -6.6309311    6.4174724   0.96543144 
 2630000   0.80011328  -0.29306916  -0.21761619    1.1636281    -6.635533    6.4179168   0.94601189 
 2640000   0.80268975  -0.35409454  -0.22368652    1.1673751   -6.6415557    6.4178692    0.9436886 
 2650000   0.80000884  -0.30141264  -0.21262344    1.1634762   -6.6288025    6.4161791   0.95085275 
 2660000   0.80941447   -0.3551308  -0.22620034    1.1771551   -6.6441544     6.417954   0.95095473 
 2670000   0.79798892  -0.31004367  -0.22657009    1.1605386   -6.6448005    6.4182305   0.93396846 
 2680000   0.79920535  -0.37130488  -0.22301046    1.1623076    -6.639859    6.4168486   0.93929718 
 2690000   0.81672545  -0.28870109  -0.21700696    1.1877876   -6.6373273    6.4203204   0.97078067 
 2700000   0.79232863  -0.35882844   -0.2239504    1.1523066   -6.6423488    6.4183984   0.92835623 
 2710000   0.80218982  -0.27749254  -0.22798934     1.166648   -6.6425586    6.4145693    0.9386587 
 2720000   0.79674968  -0.35224572  -0.21969005    1.1587363   -6.6334377    6.4137477   0.93904623 
 2730000   0.79816566  -0.31333152  -0.21732759    1.1607956   -6.6334649    6.4161373     0.943468 
 2740000   0.79283262  -0.31298572  -0.22497712    1.1530396    -6.640973    6.4159958   0.92806248 
 2750000   0.80871416  -0.29080969  -0.21204792    1.1761366    -6.630587    6.4185391   0.96408867 
 2760000   0.80279776  -0.30333986   -0.2178165    1.1675322   -6.6347654    6.4169489   0.94971569 
 2770000   0.80460679   -0.3207438  -0.23212725    1.1701631   -6.6518025    6.4196752   0.93803587 
 2780000   0.79996969  -0.36374502  -0.22599732    1.1634192   -6.6409075    6.4149102   0.93742193 
 2790000    0.7966728  -0.30184207  -0.22166101    1.1586245   -6.6396258    6.4179648   0.93696348 
 2800000   0.80187293  -0.25363646  -0.22162338    1.1661872   -6.6381378    6.4165145    0.9445638 
 2810000   0.80213609  -0.28114075  -0.22140453    1.1665699   -6.6417729    6.4203683   0.94516537 
 2820000   0.80230078  -0.26894605  -0.23103331    1.1668094   -6.6444105    6.4133772   0.93577612 
 2830000   0.80622979  -0.35961152  -0.22387169    1.1725235   -6.6417228    6.4178511   0.94865181 
 2840000   0.79612095  -0.29548331  -0.21491026    1.1578219   -6.6317768    6.4168666   0.94291166 
 2850000   0.79671546  -0.34755599  -0.21227585    1.1586865   -6.6307984    6.4185226   0.94641067 
 2860000   0.79725784  -0.36378632  -0.21765757    1.1594753   -6.6349552    6.4172976   0.94181774 
 2870000   0.79989251  -0.29349543   -0.2278848     1.163307   -6.6436969    6.4158121    0.9354222 
 2880000   0.79621614  -0.25206122  -0.21734795    1.1579603   -6.6348308    6.4174829    0.9406124 
 2890000   0.79949989  -0.30325991  -0.21705046     1.162736   -6.6350648    6.4180143   0.94568555 
 2900000   0.80258138  -0.31684614  -0.21604799    1.1672175   -6.6316159    6.4155679   0.95116951 
 2910000   0.79834012  -0.30424038  -0.21966227    1.1610493   -6.6390004    6.4193381   0.94138704 
 2920000   0.80893505   -0.3171193  -0.21590295    1.1764578   -6.6332449     6.417342   0.96055487 
 2930000   0.79393942  -0.29381859  -0.22162671    1.1546492   -6.6381268       6.4165   0.93302254 
 2940000   0.79901114  -0.31223639  -0.22156527    1.1620252   -6.6398434    6.4182782   0.94045993 
 2950000   0.80298512  -0.31700698   -0.2128016    1.1678047     -6.63219    6.4193884   0.95500308 
 2960000   0.79603194  -0.33110442  -0.22250152    1.1576925   -6.6410363    6.4185348   0.93519094 
 2970000   0.79915907  -0.31849236  -0.21916638    1.1622403   -6.6375741    6.4184078   0.94307396 
 2980000   0.80088287  -0.33870122  -0.21969321    1.1647473   -6.6338932       6.4142   0.94505411 
 2990000    0.7969202  -0.38049018  -0.22893222    1.1589843   -6.6454864    6.4165542   0.93005206 
 3000000   0.79795606  -0.32858167  -0.22151121    1.1604908   -6.6372633     6.415752   0.93897956 
 3010000   0.80367415  -0.27919663  -0.22785252    1.1688068   -6.6439518    6.4160993   0.94095424 
 3020000   0.79694014  -0.28695818  -0.22136868    1.1590133   -6.6361701    6.4148014    0.9376446 
 3030000   0.79886453  -0.29296798  -0.22494148     1.161812   -6.6425396    6.4175982   0.93687049 
 3040000   0.80163791  -0.27368852  -0.21731505    1.1658454   -6.6351607    6.4178457   0.94853035 
 3050000   0.79447758   -0.3625583  -0.21894945    1.1554319    -6.638866    6.4199165   0.93648245 
 3060000   0.80090379  -0.23203106  -0.21639825    1.1647777   -6.6333339    6.4169357   0.94837949 
 3070000   0.80509819  -0.26925617  -0.20605872    1.1708778   -6.6216017     6.415543   0.96481906 
 3080000    0.8015468  -0.34546473  -0.22389223    1.1657129    -6.640555    6.4166628   0.94182066 
 3090000   0.79681139  -0.25848047  -0.20955348     1.158826   -6.6272548    6.4177013   0.94927255 
 3100000   0.80377299   -0.3139582  -0.22883733    1.1689505   -6.6435124    6.4146751   0.94011317 
 3110000   0.80288048  -0.32147126  -0.22926534    1.1676525   -6.6464635    6.4171982   0.93838716 
 3120000   0.80241265  -0.37875765  -0.23064824    1.1669721   -6.6473585    6.4167102   0.93632387 
 3130000   0.79904359  -0.26696737  -0.22176867    1.1620724   -6.6439663    6.4221976   0.94030372 
 3140000   0.80692991  -0.24619177  -0.22680122    1.1735417   -6.6442647    6.4174634   0.94674047 
 3150000   0.80039559  -0.30442107  -0.22465446    1.1640386   -6.6429535     6.418299   0.93938418 
 3160000   0.80095266  -0.36802901   -0.2183576    1.1648488    -6.635788    6.4174304   0.94649121 
 3170000   0.79986232  -0.31394027  -0.22366409    1.1632631    -6.641927    6.4182629   0.93959901 
 3180000   0.80144526  -0.35704543  -0.22555291    1.1655652   -6.6419605    6.4164076    0.9400123 
 3190000   0.79485772  -0.34076337  -0.22167513    1.1559848   -6.6411871    6.4195119   0.93430962 
 3200000   0.80253206  -0.34423663  -0.22871793    1.1671458   -6.6456314    6.4169135   0.93842784 
 3210000   0.79216298   -0.3197487  -0.22379709    1.1520657   -6.6409848    6.4171877   0.92826864 
 3220000   0.79883304  -0.38783769  -0.22862116    1.1617662    -6.646288    6.4176669   0.93314502 
 3230000   0.80230318   -0.3056561  -0.22062794    1.1668129    -6.640647     6.420019   0.94618497 
 3240000   0.80448271  -0.26233138  -0.21501279    1.1699827   -6.6318144    6.4168016   0.95496987 
 3250000   0.80076695   -0.2805481  -0.22912508    1.1645787   -6.6440666    6.4149416   0.93545364 
 3260000   0.80154301  -0.26534028   -0.2237729    1.1657074   -6.6424935    6.4187206   0.94193447 
 3270000   0.79642493  -0.27281469  -0.21876696     1.158264   -6.6372839    6.4185169   0.93949704 
 3280000   0.80343588  -0.35017916  -0.22106755    1.1684602   -6.6412614    6.4201938   0.94739268 
 3290000   0.79837329  -0.31573367  -0.22537821    1.1610976   -6.6429581    6.4175799   0.93571934 
 3300000   0.80135899  -0.31627896  -0.21431805    1.1654397   -6.6314658    6.4171477   0.95112169 
 3310000   0.80508784  -0.28196491  -0.22290143    1.1708627   -6.6417911    6.4188896    0.9479613 
 3320000    0.8022962  -0.26474325  -0.22092153    1.1668028   -6.6380318    6.4171103   0.94588123 
 3330000    0.8011915  -0.35891397  -0.22610199    1.1651962   -6.6460393    6.4199373   0.93909417 
 3340000   0.80083278  -0.28082915  -0.21224311    1.1646745   -6.6316517    6.4194086   0.95243135 
 3350000   0.79873493  -0.26563043  -0.22828753    1.1616235   -6.6450163    6.4167288   0.93333598 
 3360000   0.79612619  -0.32793312  -0.22584758    1.1578295   -6.6443052    6.4184576   0.93198195 
 3370000   0.79778242  -0.29465427  -0.21909886    1.1602382   -6.6403105    6.4212116   0.94113938 
 3380000   0.80081658  -0.34565273  -0.22480486    1.1646509   -6.6424943    6.4176895   0.93984604 
 3390000   0.79874021  -0.33128687  -0.21975829    1.1616312   -6.6377119    6.4179536   0.94187289 
 3400000   0.80421635  -0.31185572  -0.22302813    1.1695953   -6.6410057    6.4179775   0.94656715 
 3410000   0.79694647  -0.32992226  -0.21098486    1.1590225   -6.6290514    6.4180666   0.94803763 
 3420000   0.79561457  -0.32032198  -0.22348264    1.1570855   -6.6412543    6.4177717   0.93360283 
 3430000   0.80562716  -0.29987002  -0.22647046    1.1716471    -6.638119    6.4116485   0.94517661 
 3440000   0.79756572  -0.33818622  -0.21760202    1.1599231   -6.6344667    6.4168647   0.94232107 
 3450000   0.79934335  -0.27069155  -0.22269751    1.1625083   -6.6405218    6.4178243   0.93981082 
 3460000   0.79976438  -0.28279871  -0.22919554    1.1631207   -6.6477426     6.418547   0.93392511 
 3470000   0.79903733  -0.28610973  -0.22210296    1.1620633   -6.6365819    6.4144789   0.93996033 
 3480000   0.79807525  -0.33024506  -0.22155664    1.1606641   -6.6387477     6.417191   0.93910747 
 3490000   0.79888499  -0.32210447  -0.22309531    1.1618417   -6.6417575    6.4186621   0.93874643 
 3500000   0.80534403  -0.34801606   -0.2204997    1.1712353   -6.6386345    6.4181348    0.9507356 
 3510000   0.80121684  -0.23885713  -0.21318235     1.165233   -6.6308312    6.4176489   0.95205067 
 3520000   0.80186921  -0.33575598  -0.22071627    1.1661818    -6.638923    6.4182068    0.9454655 
 3530000   0.80102626  -0.29876388  -0.22567268    1.1649558    -6.646026    6.4203533   0.93928316 
 3540000   0.79383408  -0.29503705  -0.22202012     1.154496   -6.6404593    6.4184392   0.93247593 
 3550000   0.80303171  -0.30882873   -0.2172394    1.1678724   -6.6355328    6.4182934   0.95063304 
 3560000   0.80269339  -0.33873692  -0.21938535    1.1673804   -6.6363926    6.4170072   0.94799506 
 3570000   0.80294488  -0.32456514  -0.22951641    1.1677461   -6.6440916    6.4145752   0.93822974 
 3580000   0.80172392  -0.27998047   -0.2182935    1.1659705   -6.6357615     6.417468   0.94767697 
 3590000   0.79447536  -0.37708206  -0.22380816    1.1554287    -6.641565    6.4177568   0.93162052 
 3600000   0.80663458  -0.29314444  -0.23126498    1.1731122   -6.6487689     6.417504   0.94184722 
 3610000   0.80418589  -0.27806058  -0.21825304     1.169551   -6.6378955    6.4196425   0.95129794 
 3620000   0.79838228  -0.30515533  -0.22654139    1.1611106   -6.6437111    6.4171697   0.93456924 
 3630000   0.80420763  -0.29727204  -0.21673915    1.1695826   -6.6381852    6.4214461   0.95284346 
 3640000   0.79977146  -0.33338852  -0.22291568     1.163131   -6.6404791    6.4175634   0.94021528 
 3650000    0.8010251  -0.30518747  -0.22108037    1.1649542   -6.6368318    6.4157514   0.94387379 
 3660000   0.79605216  -0.32719849  -0.22433266    1.1577219   -6.6414388    6.4171062   0.93338921 
 3670000   0.80532334  -0.26065191  -0.21381204    1.1712052   -6.6324486    6.4186365   0.95739317 
 3680000   0.79696881  -0.29609244  -0.22908104     1.159055   -6.6467336    6.4176525   0.92997393 
 3690000   0.80437782  -0.24741522  -0.22700697    1.1698301    -6.642105     6.415098   0.94282315 
 3700000   0.79454149  -0.34647992  -0.22713804    1.1555249    -6.642438       6.4153   0.92838682 
 3710000   0.80540469  -0.22326561    -0.222422    1.1713235   -6.6370656    6.4146436   0.94890152 
 3720000   0.80376026  -0.30694961  -0.22246711     1.168932   -6.6406434    6.4181763   0.94646488 
 3730000   0.80456988  -0.32089889  -0.22254646    1.1701094   -6.6378153    6.4152688   0.94756298 
 3740000   0.79651052  -0.32643703  -0.22388033    1.1583885   -6.6409371    6.4170568   0.93450815 
 3750000   0.79734027  -0.31930083  -0.22374415    1.1595952   -6.6406249    6.4168808   0.93585105 
 3760000   0.79448198  -0.28871526  -0.22080729    1.1554383   -6.6380134    6.4172061   0.93463102 
 3770000   0.80032119  -0.32952461  -0.22068283    1.1639304   -6.6356095    6.4149267   0.94324762 
 3780000   0.80020959  -0.34493188  -0.22121082    1.1637681   -6.6385815    6.4173707   0.94255732 
 3790000   0.79773767  -0.31849486  -0.21873357    1.1601732    -6.638391    6.4196575   0.94143958 
 3800000   0.79817308  -0.28699388  -0.22001167    1.1608064   -6.6375073    6.4174957    0.9407947 
 3810000   0.80176152  -0.31196544  -0.21250448    1.1660252   -6.6291922    6.4166878   0.95352068 
 3820000   0.79731323   -0.2919231  -0.21155973    1.1595559   -6.6328157    6.4212559   0.94799615 
 3830000   0.80345233  -0.30712302  -0.23290024    1.1684841   -6.6502524    6.4173522   0.93558391 
 3840000   0.80084994  -0.33598192  -0.22004311    1.1646994   -6.6376849    6.4176418   0.94465631 
 3850000    0.7976567  -0.33015133  -0.21903925    1.1600554   -6.6374501    6.4184108   0.94101615 
 3860000    0.7930454  -0.30641867  -0.22268215     1.153349   -6.6405676    6.4178854    0.9306669 
 3870000   0.80597145  -0.27037511   -0.2192182    1.1721478   -6.6387329    6.4195147   0.95292958 
 3880000   0.80226533  -0.33828226  -0.22850835    1.1667579   -6.6436307    6.4151224   0.93824951 
 3890000   0.79814884  -0.27134371  -0.22187256    1.1607711   -6.6390118    6.4171393   0.93889858 
 3900000   0.79433206  -0.30276427  -0.21998659    1.1552203   -6.6374444    6.4174578   0.93523368 
 3910000   0.80821495  -0.32656846  -0.22023317    1.1754106   -6.6384346    6.4182015   0.95517739 
 3920000     0.797346  -0.29977815  -0.21732669    1.1596035   -6.6351608    6.4178341   0.94227684 
 3930000    0.8024574  -0.31357736  -0.22253406    1.1670372   -6.6394617    6.4169277   0.94450314 
 3940000   0.81040787  -0.25481442  -0.21484803    1.1785998   -6.6334263    6.4185783   0.96375177 
 3950000   0.79775409  -0.29202193  -0.21261224     1.160197   -6.6319061    6.4192939    0.9475848 
 3960000   0.80287111  -0.25832665   -0.2185953    1.1676389    -6.635301    6.4167057   0.94904356 
 3970000   0.80079499  -0.37380909  -0.22000224    1.1646195   -6.6395792     6.419577   0.94461726 
 3980000   0.79929521  -0.33286639  -0.21945199    1.1624383   -6.6394568    6.4200048   0.94298633 
 3990000   0.79819268  -0.30222115  -0.22038929    1.1608349   -6.6428217    6.4224324   0.94044559 
 4000000    0.7955329  -0.30463533  -0.22974374    1.1569667   -6.6462522    6.4165084   0.92722296 
 4010000   0.80578321  -0.24066945  -0.21906804     1.171874   -6.6378314    6.4187633   0.95280599 
 4020000   0.79928924  -0.34860547    -0.215254    1.1624296   -6.6332635    6.4180095   0.94717565 
 4030000   0.79673839  -0.28488364  -0.21406171    1.1587199   -6.6337615    6.4196998   0.94465816 
 4040000   0.80095431  -0.32747402  -0.21816044    1.1648512   -6.6365273    6.4183668   0.94669078 
 4050000   0.80164507  -0.28915665  -0.22049069    1.1658558   -6.6373839    6.4168932   0.94536511 
 4060000   0.80056425  -0.33748205  -0.22373952    1.1642839   -6.6386393    6.4148998   0.94054441 
 4070000   0.79847182   -0.3157561  -0.22704551    1.1612409   -6.6420271    6.4149815   0.93419534 
 4080000   0.80033396  -0.32318223  -0.21265904     1.163949   -6.6283138    6.4156548   0.95128997 
 4090000   0.79575807   -0.3032125  -0.21620305    1.1572942   -6.6365393    6.4203362   0.94109112 
 4100000   0.80922542  -0.30766071  -0.23097281    1.1768801   -6.6484712    6.4174984   0.94590731 
 4110000   0.79522964  -0.26197119  -0.21920952    1.1565257   -6.6336294    6.4144199   0.93731614 
 4120000   0.80123449  -0.26299394  -0.21583698    1.1652587    -6.635442     6.419605    0.9494217 
 4130000   0.79453899  -0.31058424  -0.22844936    1.1555212   -6.6479365    6.4194871   0.92707185 
 4140000   0.80673172  -0.25777456  -0.21315323    1.1732535   -6.6336729    6.4205197   0.96010023 
 4150000   0.79559401  -0.34724345  -0.21134516    1.1570556   -6.6285452       6.4172   0.94571041 
 4160000   0.79568902   -0.3437329  -0.22502671    1.1571937   -6.6451942    6.4201675   0.93216704 
 4170000   0.79705844  -0.35225733  -0.22127085    1.1591853   -6.6372402    6.4159693   0.93791448 
 4180000   0.80077743  -0.31687578  -0.21246497     1.164594   -6.6312387    6.4187737     0.952129 
 4190000   0.80471459  -0.35108358  -0.22719313    1.1703199    -6.641325    6.4141318   0.94312676 
 4200000   0.79992291  -0.36121682  -0.21927546    1.1633512   -6.6377087    6.4184333   0.94407575 
 4210000   0.79455708  -0.32400856  -0.22088821    1.1555475   -6.6394019    6.4185137   0.93465932 
 4220000    0.7987575  -0.28812716  -0.22210491    1.1616563   -6.6413336    6.4192287   0.93955142 
 4230000   0.80123206  -0.34830966  -0.21651124    1.1652551   -6.6377803    6.4212691   0.94874391 
 4240000   0.79358759  -0.31331488  -0.21481445    1.1541376   -6.6295098    6.4146954   0.93932312 
 4250000   0.80648528   -0.2517818  -0.21984037    1.1728951   -6.6370472    6.4172068    0.9530547 
 4260000   0.80613227  -0.29095934   -0.2234223    1.1723817   -6.6412279    6.4178056   0.94895936 
 4270000   0.80264775   -0.3305991  -0.23036807     1.167314   -6.6510148    6.4206467   0.93694596 
 4280000   0.80219545  -0.34716798  -0.22068576    1.1666562   -6.6395647    6.4188789   0.94597047 
 4290000   0.79712592  -0.20457008  -0.22060421    1.1592835   -6.6378083    6.4172041   0.93867925 
 4300000   0.80291951   -0.3446645  -0.21896358    1.1677093   -6.6347508    6.4157872   0.94874568 
 4310000   0.80024255  -0.22771391  -0.21099764    1.1638161    -6.627147    6.4161493   0.95281843 
 4320000    0.7958366   -0.2448835  -0.21663536    1.1574084   -6.6376612    6.4210258   0.94077302 
 4330000   0.80318333  -0.29467954  -0.22012538    1.1680929   -6.6354497    6.4153243   0.94796756 
 4340000   0.79825899  -0.30538742  -0.21617342    1.1609313   -6.6350007    6.4188273   0.94475791 
 4350000   0.79721022  -0.28834879  -0.21836517    1.1594061   -6.6344658    6.4161006    0.9410409 
 4360000    0.8015893  -0.27504139  -0.21636415    1.1657747    -6.635399    6.4190348   0.94941055 
 4370000   0.80044618  -0.31338256  -0.21247914    1.1641122    -6.632436    6.4199569   0.95163308 
 4380000   0.80208412  -0.28336962  -0.21460728    1.1664943   -6.6347049    6.4200976   0.95188705 
 4390000    0.8024539  -0.29821514  -0.22064406    1.1670321    -6.638193    6.4175489   0.94638805 
 4400000   0.80039756  -0.33180586  -0.21373192    1.1640415   -6.6326663    6.4189344   0.95030959 
 4410000   0.79748123  -0.32307432    -0.221634    1.1598002   -6.6387062    6.4170722   0.93816621 
 4420000   0.80807884  -0.31369416  -0.22334802    1.1752126   -6.6428414    6.4194934    0.9518646 
 4430000    0.8024163  -0.33680808  -0.21756957    1.1669774   -6.6325431    6.4149736   0.94940785 
 4440000   0.79805191    -0.311672  -0.22034318    1.1606302   -6.6370961    6.4167529   0.94028697 
 4450000   0.80082681  -0.40082257  -0.22409976    1.1646658   -6.6431827    6.4190829   0.94056601 
 4460000   0.80354542   -0.3238418  -0.22296368    1.1686195   -6.6412742    6.4183105   0.94565586 
 4470000   0.79765878   -0.2829303  -0.21862442    1.1600584   -6.6394769    6.4208525   0.94143401 
 4480000   0.79757642  -0.28863518  -0.22183036    1.1599386   -6.6393284     6.417498   0.93810828 
 4490000   0.80091066  -0.37565764  -0.22175488    1.1647877   -6.6394568    6.4177019   0.94303285 
 4500000   0.80251981  -0.37123826  -0.22997352     1.167128   -6.6460774    6.4161039   0.93715444 
 4510000   0.80086555  -0.31603916  -0.21756466    1.1647221   -6.6367325    6.4191678   0.94715746 
 4520000   0.80833189  -0.22724107  -0.21693901    1.1755806   -6.6345813    6.4176423   0.95864163 
 4530000   0.79955732  -0.27367233  -0.21784512    1.1628195   -6.6360954    6.4182502    0.9449744 
 4540000   0.79568224  -0.33913351  -0.22847765    1.1571839   -6.6460714    6.4175938   0.92870624 
 4550000    0.8015386  -0.32571104  -0.22870733     1.165701   -6.6439693     6.415262   0.93699363 
 4560000   0.80083116  -0.37024983  -0.21953156    1.1646721   -6.6351926    6.4156611   0.94514055 
 4570000   0.80509472  -0.32466371  -0.22804464    1.1708727   -6.6461963    6.4181517   0.94282808 
 4580000   0.80513641  -0.33183859  -0.22257422    1.1709334   -6.6370365    6.4144623   0.94835914 
 4590000   0.79957309  -0.33019149  -0.22524134    1.1628425    -6.642841    6.4175997   0.93760112 
 4600000   0.80365639  -0.25890371  -0.22223326    1.1687809   -6.6402059    6.4179726   0.94654765 
 4610000   0.80246115  -0.35318785  -0.22268219    1.1670426   -6.6402959    6.4176137   0.94436046 
 4620000   0.79875875  -0.28986938  -0.21994283    1.1616581   -6.6397358     6.419793   0.94171532 
 4630000   0.79328092  -0.32402718  -0.22156296    1.1536916   -6.6379557    6.4163927   0.93212862 
 4640000    0.8023077  -0.28328172  -0.21554176    1.1668195    -6.634526    6.4189842   0.95127772 
 4650000   0.80132873  -0.27208608   -0.2185591    1.1653957   -6.6359244    6.4173653   0.94683664 
 4660000   0.79674685  -0.30560347  -0.21693316    1.1587322   -6.6336848    6.4167516   0.94179902 
 4670000   0.80320055  -0.32573303  -0.22034708     1.168118   -6.6373222    6.4169752    0.9477709 
 4680000   0.80318966  -0.32631837  -0.22095535    1.1681021   -6.6371744    6.4162191    0.9471468 
 4690000   0.79504482  -0.36520641  -0.22592806    1.1562569   -6.6455126    6.4195846    0.9303288 
 4700000   0.80198838  -0.34112054  -0.22365109    1.1663551   -6.6408963    6.4172452   0.94270399 
 4710000   0.80056381  -0.29045919  -0.22887619    1.1642833   -6.6440309    6.4151547   0.93540709 
 4720000   0.80178821  -0.32050375   -0.2127819     1.166064   -6.6330563    6.4202744   0.95328207 
 4730000   0.80206392  -0.33441865   -0.2162055    1.1664649   -6.6368984    6.4206929   0.95025945 
 4740000   0.80106829  -0.34890257  -0.20946134     1.165017   -6.6311144     6.421653   0.95555563 
 4750000   0.80541261  -0.31327959  -0.22320659     1.171335   -6.6389867    6.4157801   0.94812846 
 4760000    0.8009529  -0.33226878  -0.22491513    1.1648492    -6.641681    6.4167659   0.93993402 
 4770000   0.79531508     -0.32666  -0.22033808    1.1566499   -6.6355301     6.415192   0.93631182 
 4780000   0.80121942  -0.27240973  -0.21864322    1.1652368   -6.6355003    6.4168571   0.94659355 
 4790000   0.79759559  -0.31733701  -0.21344976    1.1599665   -6.6334305    6.4199807   0.94651677 
 4800000   0.80511481  -0.28174445  -0.22042665    1.1709019   -6.6391863    6.4187597   0.95047529 
 4810000   0.79961877  -0.37256597  -0.23124807    1.1629089   -6.6466204    6.4153723   0.93166083 
 4820000   0.79836348  -0.32275851  -0.21811213    1.1610833   -6.6374725    6.4193604   0.94297115 
 4830000    0.8049231  -0.27934807  -0.22280148    1.1706231   -6.6386987    6.4158972   0.94782165 
 4840000   0.79998343   -0.3328894  -0.21781128    1.1634392   -6.6332667    6.4154554   0.94562794 
 4850000   0.79650415  -0.25105952  -0.21940178    1.1583792   -6.6380725    6.4186707   0.93897744 
 4860000   0.79394585  -0.32897864  -0.23103175    1.1546586   -6.6445676    6.4135359   0.92362685 
 4870000   0.79665847  -0.27222381  -0.21297738    1.1586036   -6.6311426    6.4181652   0.94562626 
 4880000   0.79260948  -0.27613536  -0.22273352    1.1527151     -6.64354    6.4208065   0.92998155 
 4890000   0.80073906   -0.3103456  -0.22277067    1.1645382   -6.6347972    6.4120265   0.94176748 
 4900000   0.80189214   -0.3560608  -0.22622454    1.1662151   -6.6409672    6.4147427   0.93999058 
 4910000   0.80186161  -0.31749561  -0.22498587    1.1661707   -6.6399649     6.414979   0.94118485 
 4920000    0.7963742  -0.29819553  -0.21610783    1.1581902   -6.6358598    6.4197519   0.94208239 
 4930000   0.80143675  -0.32349835  -0.21764396    1.1655528   -6.6330606    6.4154167   0.94790887 
 4940000    0.8008569  -0.30428777  -0.21197297    1.1647095   -6.6297082    6.4177353   0.95273658 
 4950000    0.8004966  -0.33457827  -0.22458501    1.1641855   -6.6395371    6.4149521   0.93960054 
 4960000   0.79539915  -0.25871076  -0.23007423    1.1567722   -6.6441276    6.4140534   0.92669795 
 4970000   0.80820852  -0.38391369  -0.22040498    1.1754012    -6.638929     6.418524   0.95499624 
 4980000   0.80067033  -0.34044842  -0.21830613    1.1644382   -6.6358635    6.4175574   0.94613207 
 4990000   0.79589097  -0.28599063  -0.22374404    1.1574874   -6.6416243    6.4178802    0.9337434 
 5000000   0.80054671  -0.32120049  -0.22140636    1.1642584   -6.6360868    6.4146804   0.94285207 
 5010000    0.8048044   -0.2995198  -0.22542803    1.1704505   -6.6417236    6.4162956   0.94502248 
 5020000    0.7978312  -0.36054392  -0.22727189    1.1603092   -6.6435856    6.4163137   0.93303728 
 5030000   0.79669173   -0.3552861  -0.22381375     1.158652   -6.6421109    6.4182971   0.93483826 
 5040000   0.79851646  -0.29161949  -0.22006965    1.1613058   -6.6392335    6.4191638   0.94123612 
 5050000   0.80101248  -0.34408813  -0.21934942    1.1649358   -6.6395735     6.420224   0.94558639 
 5060000    0.8006713  -0.36223839  -0.22965791    1.1644396   -6.6478794    6.4182215   0.93478171 
 5070000   0.79797363  -0.33743837  -0.21638653    1.1605163   -6.6363125     6.419926   0.94412979 
 5080000   0.79830665   -0.2338814   -0.2200018    1.1610006   -6.6397806    6.4197788   0.94099884 
 5090000   0.80193104  -0.35315378  -0.22844885    1.1662717   -6.6486128     6.420164   0.93782285 
 5100000    0.7997326  -0.33026881  -0.22529594    1.1630744   -6.6397495    6.4144535    0.9377785 
 5110000    0.7969823  -0.36164154  -0.22121638    1.1590746   -6.6343577    6.4131413   0.93785822 
 5120000   0.80364798  -0.32340209  -0.22336235    1.1687687   -6.6403041    6.4169417   0.94540634 
 5130000   0.79503654   -0.2613062  -0.21206999    1.1562448   -6.6323195    6.4202495   0.94417484 
 5140000     0.799893  -0.26234196   -0.2059611    1.1633077   -6.6250752     6.419114   0.95734662 
 5150000   0.80632858  -0.36784288  -0.22724192    1.1726672   -6.6467048    6.4194629   0.94542525 
 5160000   0.80219377  -0.25909755  -0.22145375    1.1666538   -6.6452871    6.4238333   0.94520004 
 5170000   0.80074589  -0.31967763  -0.21981912    1.1645481   -6.6368802     6.417061   0.94472898 
 5180000   0.80163661  -0.32598387  -0.21837378    1.1658435   -6.6345417    6.4161679   0.94746972 
 5190000   0.80822409  -0.30275518  -0.23217612    1.1754239   -6.6452876    6.4131114   0.94324773 
 5200000   0.79872056  -0.32254188  -0.22638329    1.1616026   -6.6406325    6.4142492   0.93521932 
 5210000   0.80246526  -0.33097879  -0.22018434    1.1670486   -6.6345989    6.4144146   0.94686429 
 5220000   0.80394014  -0.28046917  -0.21945661    1.1691936   -6.6375839    6.4181272   0.94973698 
 5230000   0.79141714  -0.29198336  -0.21740679     1.150981   -6.6364237    6.4190169   0.93357424 
 5240000   0.79262103  -0.34401019  -0.22259178    1.1527319   -6.6407812    6.4181894    0.9301401 
 5250000   0.79841399  -0.28842271   -0.2221083    1.1611567   -6.6421839    6.4200756   0.93904844 
 5260000   0.79650193  -0.27178564  -0.22344633     1.158376   -6.6432719    6.4198256   0.93492966 
 5270000   0.80587476  -0.24893174  -0.22160749    1.1720072   -6.6409522    6.4193447   0.95039967 
 5280000   0.80095209  -0.27053319  -0.22070025     1.164848   -6.6377966    6.4170963   0.94414773 
 5290000   0.80040492  -0.31291935  -0.21967222    1.1640522   -6.6380737    6.4184015   0.94437999 
 5300000   0.80154814  -0.26535451  -0.22086824    1.1657148   -6.6377462     6.416878   0.94484659 
 5310000   0.79645756  -0.25059038  -0.21227731    1.1583115   -6.6332107    6.4209334   0.94603415 
 5320000   0.79873964   -0.3200427  -0.22904721    1.1616303   -6.6448798    6.4158326   0.93258314 
 5330000   0.79843113  -0.32095302   -0.2338827    1.1611817   -6.6514151    6.4175324   0.92729898 
 5340000   0.79794293  -0.33583461  -0.22927092    1.1604717   -6.6440864    6.4148155   0.93120076 
 5350000   0.79941502  -0.30111456  -0.22197004    1.1626126   -6.6413031    6.4193331   0.94064254 
 5360000   0.80594444  -0.21113774  -0.21661966    1.1721085   -6.6357281    6.4191085   0.95548884 
 5370000   0.80014841  -0.26994742  -0.22219139    1.1636792   -6.6396702    6.4174788   0.94148778 
 5380000   0.80045094   -0.3009135  -0.21761907    1.1641191   -6.6366688    6.4190497   0.94650007 
 5390000   0.79920172  -0.29884791  -0.22070516    1.1623024   -6.6389875    6.4182823   0.94159721 
 5400000   0.79768987  -0.31921855   -0.2260863    1.1601036   -6.6455731    6.4194868   0.93401735 
 5410000   0.79688475  -0.32163155  -0.22106722    1.1589327   -6.6415548    6.4204876   0.93786552 
 5420000   0.79249015  -0.35083258  -0.21974789    1.1525415    -6.639696    6.4199481   0.93279365 
 5430000   0.79347674  -0.32614681  -0.21737601    1.1539764   -6.6384333    6.4210573   0.93660034 
 5440000   0.80286544  -0.22783718  -0.21698471    1.1676306   -6.6333744    6.4163897   0.95064591 
 5450000   0.80161404  -0.27337435  -0.21392844    1.1658107   -6.6323351    6.4184066   0.95188223 
 5460000   0.80671885  -0.38454974  -0.22921772    1.1732348   -6.6437699    6.4145522   0.94401704 
 5470000   0.79593269  -0.26863519  -0.20777955    1.1575481   -6.6252037    6.4174241   0.94976857 
 5480000   0.79801835  -0.31412146  -0.22100811    1.1605814   -6.6396491     6.418641   0.93957325 
 5490000   0.79743049   -0.2585889  -0.21861563    1.1597264   -6.6373328    6.4187171   0.94111079 
 5500000   0.79719907  -0.37931578  -0.21677636    1.1593899   -6.6354639    6.4186875    0.9426135 
 5510000   0.79556912  -0.33316731  -0.22634564    1.1570194   -6.6428969    6.4165512   0.93067373 
 5520000   0.79550487  -0.27614911  -0.21861904    1.1569259   -6.6336114    6.4149924    0.9383069 
 5530000   0.79951264  -0.27433376  -0.22583198    1.1627545   -6.6439515    6.4181195   0.93692256 
 5540000    0.8016324  -0.31770125  -0.22046794    1.1658374   -6.6362747    6.4158067   0.94536944 
 5550000   0.79605159   -0.2991341  -0.22456732     1.157721   -6.6406668    6.4160995   0.93315371 
 5560000   0.80214695  -0.27110009  -0.22124798    1.1665857    -6.639187     6.417939   0.94533773 
 5570000   0.79436857  -0.29365663  -0.22422537    1.1552734   -6.6393363     6.415111   0.93104801 
 5580000   0.80102859  -0.31813392  -0.21860373    1.1649592   -6.6394335    6.4208297    0.9463555 
 5590000   0.79882972  -0.30023225  -0.22259399    1.1617614   -6.6406239      6.41803   0.93916737 
 5600000   0.79777219  -0.30774813  -0.22621187    1.1602234   -6.6433655    6.4171537   0.93401149 
 5610000   0.80532671  -0.30870315  -0.22303255    1.1712101   -6.6397445     6.416712   0.94817757 
 5620000   0.80923406  -0.28751917  -0.22634358    1.1768927   -6.6428815     6.416538   0.95054911 
 5630000   0.80203805  -0.36251334  -0.22809099    1.1664273   -6.6424161    6.4143251   0.93833633 
 5640000   0.79905564  -0.36381793  -0.22973668    1.1620899   -6.6482498    6.4185131   0.93235324 
 5650000   0.80092132  -0.32293271  -0.22779778    1.1648032   -6.6460611    6.4182633   0.93700545 
 5660000   0.79892268   -0.2819449  -0.22813119    1.1618965   -6.6462831    6.4181519   0.93376536 
 5670000   0.80714044  -0.24642701   -0.2107489    1.1738479   -6.6279388    6.4171899   0.96309897 
 5680000   0.79784389   -0.2586011  -0.22051825    1.1603276   -6.6398669    6.4193486   0.93980939 
 5690000   0.79944824  -0.25831948  -0.21739855    1.1626609   -6.6331201    6.4157216   0.94526234 
 5700000   0.79977731   -0.2934385  -0.22015579    1.1631395   -6.6356757    6.4155199   0.94298367 
 5710000   0.80232578  -0.29935586  -0.21666193    1.1668458   -6.6331888    6.4165268   0.95018384 
 5720000   0.79674075  -0.32722729  -0.21628137    1.1587233   -6.6338085    6.4175271   0.94244194 
 5730000   0.79764462  -0.33136118  -0.21568586    1.1600378   -6.6346209     6.418935   0.94435196 
 5740000   0.80270998  -0.26786362  -0.21941279    1.1674045   -6.6404057     6.420993   0.94799175 
 5750000   0.79660117   -0.2432637  -0.21196569    1.1585203   -6.6321399    6.4201742   0.94655462 
 5760000   0.79220758  -0.27164033  -0.22520175    1.1521306   -6.6427778    6.4175761   0.92692883 
 5770000   0.80064273  -0.21154328  -0.21732095    1.1643981   -6.6355256    6.4182046   0.94707713 
 5780000    0.7977784  -0.31412306  -0.21532321    1.1602324   -6.6301335    6.4148103   0.94490918 
 5790000   0.80201287  -0.35146818  -0.22037209    1.1663907   -6.6407495    6.4203774   0.94601861 
 5800000   0.80060437  -0.26645626  -0.22493655    1.1643423   -6.6433088    6.4183722   0.93940573 
 5810000   0.79954922  -0.29644261  -0.22462533    1.1628077   -6.6394299    6.4148046   0.93818242 
 5820000   0.80159275  -0.37565699  -0.21700631    1.1657797   -6.6371933     6.420187    0.9487734 
 5830000   0.79490593  -0.33712415   -0.2260644    1.1560549   -6.6417566    6.4156922   0.92999046 
 5840000   0.79654304  -0.35966689  -0.22382443    1.1584358   -6.6370785    6.4132541   0.93461133 
 5850000   0.79711443  -0.35356591  -0.21342036    1.1592668   -6.6339509    6.4205305    0.9458464 
 5860000   0.78888535  -0.34783819  -0.22142266     1.147299   -6.6374101    6.4159874   0.92587631 
 5870000   0.79743341  -0.28065023  -0.21767869    1.1597307   -6.6347312    6.4170525   0.94205197 
 5880000    0.8006488  -0.31251054  -0.22227018    1.1644069   -6.6365039    6.4142337   0.94213672 
 5890000   0.79778531  -0.30529911  -0.22477335    1.1602424   -6.6436193     6.418846   0.93546909 
 5900000   0.80391935  -0.29746099  -0.21382692    1.1691633   -6.6308199    6.4169929   0.95533643 
 5910000   0.80166774  -0.27297999  -0.22347165    1.1658888   -6.6419136     6.418442   0.94241713 
 5920000   0.79780167  -0.37433147  -0.22864873    1.1602662   -6.6433646    6.4147159    0.9316175 
 5930000   0.80649447  -0.37686489  -0.22676229    1.1729084   -6.6444443     6.417682   0.94614613 
 5940000   0.79866358  -0.34202917  -0.21771612    1.1615197   -6.6314994    6.4137833   0.94380361 
 5950000   0.80495103  -0.28178071   -0.2173232    1.1706637   -6.6349953    6.4176721   0.95334055 
 5960000   0.79851613    -0.367056  -0.22691921    1.1613053   -6.6419562     6.415037   0.93438609 
 5970000   0.80084817  -0.28879123  -0.22201274    1.1646968   -6.6363901    6.4143774    0.9426841 
 5980000   0.80147056  -0.27001146  -0.21345167     1.165602   -6.6277523    6.4143006   0.95215034 
 5990000    0.7962889  -0.33828104  -0.22968549    1.1580662   -6.6471458    6.4174603   0.92838068 
 6000000   0.79648188  -0.40908679  -0.22081853    1.1583468   -6.6372437    6.4164251   0.93752829 
Loop time of 69794.5 on 216 procs for 6000000 steps with 27950 atoms

Performance: 37137.574 tau/day, 85.967 timesteps/s
99.9% CPU use with 216 MPI tasks x 1 OpenMP threads

MPI task timing breakdown:
Section |  min time  |  avg time  |  max time  |%varavg| %total
---------------------------------------------------------------
Pair    | 1119.8     | 1267.6     | 1515.6     | 218.3 |  1.82
Bond    | 16.304     | 18.558     | 20.726     |  20.0 |  0.03
Kspace  | 62338      | 62658      | 62865      |  37.6 | 89.78
Neigh   | 681.78     | 718.73     | 757.68     |  59.8 |  1.03
Comm    | 1358.4     | 1602.7     | 1876       | 295.3 |  2.30
Output  | 2.5772     | 2.6334     | 2.6439     |   0.4 |  0.00
Modify  | 2906.7     | 3056.8     | 3234.8     | 130.8 |  4.38
Other   |            | 469        |            |       |  0.67

Nlocal:    129.398 ave 188 max 113 min
Histogram: 45 76 55 15 8 6 3 4 2 2
Nghost:    957.347 ave 1067 max 891 min
Histogram: 10 37 40 43 32 16 24 7 4 3
Neighs:    4753.27 ave 9109 max 3706 min
Histogram: 56 93 31 11 11 3 7 2 1 1

Total # of neighbors = 1026706
Ave neighs/atom = 36.7337
Ave special neighs/atom = 0.62254
Neighbor list builds = 806543
Dangerous builds = 0
System init for write_restart ...
PPPM initialization ...
  using 12-bit tables for long-range coulomb (src/kspace.cpp:332)
  G vector (1/distance) = 1.20588
  grid = 108 108 108
  stencil order = 5
  estimated absolute RMS force accuracy = 0.000129295
  estimated relative force accuracy = 0.000129295
  using double precision FFTW3
  3d grid and FFT values/proc = 12167 5832
WARNING: Neighbor exclusions used with KSpace solver may give inconsistent Coulombic energies (src/neighbor.cpp:486)
Neighbor list info ...
  update every 1 steps, delay 0 steps, check yes
  max neighbors/atom: 2000, page size: 100000
  master list distance cutoff = 2.8
  ghost atom cutoff = 2.8
  binsize = 1.4, bins = 24 24 24
  7 neighbor lists, perpetual/occasional/extra = 2 5 0
  (1) pair lj/cut, perpetual
      attributes: half, newton on
      pair build: half/bin/newton
      stencil: half/bin/3d/newton
      bin: standard
  (2) pair coul/long, perpetual, skip from (1)
      attributes: half, newton on
      pair build: skip
      stencil: none
      bin: none
  (3) compute rdf, occasional, copy from (1)
      attributes: half, newton on
      pair build: copy
      stencil: none
      bin: none
  (4) compute rdf, occasional, copy from (1)
      attributes: half, newton on
      pair build: copy
      stencil: none
      bin: none
  (5) compute rdf, occasional, copy from (1)
      attributes: half, newton on
      pair build: copy
      stencil: none
      bin: none
  (6) compute rdf, occasional, copy from (1)
      attributes: half, newton on
      pair build: copy
      stencil: none
      bin: none
  (7) compute rdf, occasional, copy from (1)
      attributes: half, newton on
      pair build: copy
      stencil: none
      bin: none
PPPM initialization ...
  using 12-bit tables for long-range coulomb (src/kspace.cpp:332)
  G vector (1/distance) = 1.20588
  grid = 108 108 108
  stencil order = 5
  estimated absolute RMS force accuracy = 0.000129295
  estimated relative force accuracy = 0.000129295
  using double precision FFTW3
  3d grid and FFT values/proc = 12167 5832
WARNING: Neighbor exclusions used with KSpace solver may give inconsistent Coulombic energies (src/neighbor.cpp:486)
Neighbor list info ...
  update every 1 steps, delay 0 steps, check yes
  max neighbors/atom: 2000, page size: 100000
  master list distance cutoff = 2.8
  ghost atom cutoff = 2.8
  binsize = 1.4, bins = 24 24 24
  7 neighbor lists, perpetual/occasional/extra = 2 5 0
  (1) pair lj/cut, perpetual
      attributes: half, newton on
      pair build: half/bin/newton
      stencil: half/bin/3d/newton
      bin: standard
  (2) pair coul/long, perpetual, skip from (1)
      attributes: half, newton on
      pair build: skip
      stencil: none
      bin: none
  (3) compute rdf, occasional, copy from (1)
      attributes: half, newton on
      pair build: copy
      stencil: none
      bin: none
  (4) compute rdf, occasional, copy from (1)
      attributes: half, newton on
      pair build: copy
      stencil: none
      bin: none
  (5) compute rdf, occasional, copy from (1)
      attributes: half, newton on
      pair build: copy
      stencil: none
      bin: none
  (6) compute rdf, occasional, copy from (1)
      attributes: half, newton on
      pair build: copy
      stencil: none
      bin: none
  (7) compute rdf, occasional, copy from (1)
      attributes: half, newton on
      pair build: copy
      stencil: none
      bin: none
Setting up Verlet run ...
  Unit style    : lj
  Current step  : 6000000
  Time step     : 0.005
Per MPI rank memory allocation (min/avg/max) = 19.08 | 19.41 | 20.1 Mbytes
Step Lx Ly Lz Press Pxx Pyy Pzz PotEng Temp 
 6000000     32.55105     32.55105     32.55105  -0.29122001  -0.57963388  -0.20853639 -0.085489775  -0.22081853   0.79648188 
 6000010    33.202071    32.230342    32.230342  -0.26134158   -1.3995141   0.30313213   0.31235726  -0.20063684   0.80001896 
 6000020    33.853092     31.91893     31.91893  -0.14975603   -1.4584669   0.45783275   0.55136604  -0.17844606   0.81669793 
 6000030    34.504113    31.616374    31.616374 -0.091892089   -1.6085072   0.57959457    0.7532364  -0.15762732   0.83595149 
 6000040    35.155134    31.322262    31.322262 -0.007828224    -1.597879   0.72365825   0.85073604   -0.1352965    0.8579824 
 6000050    35.806155    31.036208    31.036208   0.11035297   -1.4260015   0.85412897   0.90293144  -0.11885984   0.88068945 
 6000060    36.457176    30.757851    30.757851   0.25974344   -1.2390628    1.0029431      1.01535 -0.091889309   0.89389255 
 6000070    37.108197    30.486851    30.486851   0.31661399   -1.2339727    1.0946946    1.0891201  -0.07432669   0.91169447 
 6000080    37.759218    30.222891    30.222891   0.40280037    -1.080865    1.1516427    1.1376234 -0.057946594   0.92905332 
 6000090    38.410239     29.96567     29.96567   0.47965029  -0.97757778     1.144427    1.2721016 -0.046552913   0.94838754 
 6000100     39.06126    29.714907    29.714907   0.47280527  -0.92804133    1.1994862    1.1469709 -0.028103651    0.9609184 
Loop time of 1.45405 on 216 procs for 100 steps with 27950 atoms

Performance: 29710.090 tau/day, 68.773 timesteps/s
99.8% CPU use with 216 MPI tasks x 1 OpenMP threads

MPI task timing breakdown:
Section |  min time  |  avg time  |  max time  |%varavg| %total
---------------------------------------------------------------
Pair    | 0.013551   | 0.020404   | 0.045845   |   3.8 |  1.40
Bond    | 0.00016356 | 0.00024156 | 0.0010545  |   0.0 |  0.02
Kspace  | 0.99293    | 1.0133     | 1.0436     |   0.8 | 69.69
Neigh   | 0.044507   | 0.04663    | 0.048942   |   0.5 |  3.21
Comm    | 0.038477   | 0.054804   | 0.080216   |   4.0 |  3.77
Output  | 0.0076675  | 0.012915   | 0.014479   |   0.8 |  0.89
Modify  | 0.18646    | 0.20898    | 0.26185    |   2.4 | 14.37
Other   |            | 0.09674    |            |       |  6.65

Nlocal:    129.398 ave 186 max 109 min
Histogram: 13 70 79 24 14 4 5 3 3 1
Nghost:    962.602 ave 1084 max 899 min
Histogram: 19 42 41 37 31 15 22 4 3 2
Neighs:    4767.7 ave 9071 max 3742 min
Histogram: 61 88 30 16 8 3 6 3 0 1

Total # of neighbors = 1029824
Ave neighs/atom = 36.8452
Ave special neighs/atom = 0.62254
Neighbor list builds = 49
Dangerous builds = 0
PPPM initialization ...
  using 12-bit tables for long-range coulomb (src/kspace.cpp:332)
  G vector (1/distance) = 1.20503
  grid = 125 100 100
  stencil order = 5
  estimated absolute RMS force accuracy = 0.000131031
  estimated relative force accuracy = 0.000131031
  using double precision FFTW3
  3d grid and FFT values/proc = 14283 6750
WARNING: Neighbor exclusions used with KSpace solver may give inconsistent Coulombic energies (src/neighbor.cpp:486)
Neighbor list info ...
  update every 1 steps, delay 0 steps, check yes
  max neighbors/atom: 2000, page size: 100000
  master list distance cutoff = 2.8
  ghost atom cutoff = 2.8
  binsize = 1.4, bins = 28 22 22
  7 neighbor lists, perpetual/occasional/extra = 2 5 0
  (1) pair lj/cut, perpetual
      attributes: half, newton on
      pair build: half/bin/newton
      stencil: half/bin/3d/newton
      bin: standard
  (2) pair coul/long, perpetual, skip from (1)
      attributes: half, newton on
      pair build: skip
      stencil: none
      bin: none
  (3) compute rdf, occasional, copy from (1)
      attributes: half, newton on
      pair build: copy
      stencil: none
      bin: none
  (4) compute rdf, occasional, copy from (1)
      attributes: half, newton on
      pair build: copy
      stencil: none
      bin: none
  (5) compute rdf, occasional, copy from (1)
      attributes: half, newton on
      pair build: copy
      stencil: none
      bin: none
  (6) compute rdf, occasional, copy from (1)
      attributes: half, newton on
      pair build: copy
      stencil: none
      bin: none
  (7) compute rdf, occasional, copy from (1)
      attributes: half, newton on
      pair build: copy
      stencil: none
      bin: none
Setting up Verlet run ...
  Unit style    : lj
  Current step  : 6000100
  Time step     : 0.005
Per MPI rank memory allocation (min/avg/max) = 19.1 | 19.53 | 20.27 Mbytes
Step Lx Ly Lz Press Pxx Pyy Pzz PotEng Temp 
 6000100     39.06126    29.714907    29.714907   0.58027866  -0.93197874    1.2873472    1.3854675 -0.023805658    0.9609184 
 6010000     39.06126    29.714907    29.714907  -0.32768038  -0.31540894  -0.34043705  -0.32719515  -0.22571436   0.79880621 
 6020000     39.06126    29.714907    29.714907  -0.28239266  -0.24849393  -0.29693888  -0.30174515  -0.22492563   0.80065035 
 6030000     39.06126    29.714907    29.714907  -0.22569345  -0.21197228  -0.27010288  -0.19500519  -0.21572777   0.80226726 
 6040000     39.06126    29.714907    29.714907  -0.30528838  -0.32239926  -0.30856769  -0.28489819  -0.23291144    0.8001235 
 6050000     39.06126    29.714907    29.714907   -0.3985604  -0.43783037  -0.43909571  -0.31875512   -0.2287641    0.8049848 
 6060000     39.06126    29.714907    29.714907  -0.36210902  -0.33521616  -0.41771759  -0.33339332  -0.22721564   0.80201106 
 6070000     39.06126    29.714907    29.714907  -0.30943514   -0.3040893   -0.3205206  -0.30369551  -0.22251965   0.80610621 
 6080000     39.06126    29.714907    29.714907  -0.35405405  -0.38198358   -0.2908804  -0.38929818   -0.2232388   0.79941964 
 6090000     39.06126    29.714907    29.714907  -0.24381026  -0.17718237  -0.31969114  -0.23455727  -0.22364932    0.7994699 
 6100000     39.06126    29.714907    29.714907  -0.32240862  -0.25458982  -0.34857671  -0.36405933  -0.21903734   0.80091806 
 6100100     39.06126    29.714907    29.714907  -0.23159648  -0.18938221   -0.3124314  -0.19297583  -0.21681813   0.80608236 
Loop time of 1243.93 on 216 procs for 100000 steps with 27950 atoms

Performance: 34728.543 tau/day, 80.390 timesteps/s
99.9% CPU use with 216 MPI tasks x 1 OpenMP threads

MPI task timing breakdown:
Section |  min time  |  avg time  |  max time  |%varavg| %total
---------------------------------------------------------------
Pair    | 15.947     | 20.655     | 44.764     | 107.2 |  1.66
Bond    | 0.21336    | 0.26698    | 0.40633    |   6.9 |  0.02
Kspace  | 1110.8     | 1133       | 1142.2     |  19.7 | 91.08
Neigh   | 11.195     | 11.91      | 12.658     |   8.2 |  0.96
Comm    | 26.255     | 33.195     | 46.819     |  70.2 |  2.67
Output  | 0.039374   | 0.039426   | 0.03985    |   0.0 |  0.00
Modify  | 31.616     | 35.196     | 39.772     |  29.0 |  2.83
Other   |            | 9.7        |            |       |  0.78

Nlocal:    129.398 ave 189 max 112 min
Histogram: 23 102 55 9 14 4 4 3 0 2
Nghost:    963.032 ave 1098 max 877 min
Histogram: 2 22 53 59 25 32 8 7 6 2
Neighs:    4752.78 ave 9449 max 3790 min
Histogram: 84 78 23 13 6 7 3 0 1 1

Total # of neighbors = 1026601
Ave neighs/atom = 36.7299
Ave special neighs/atom = 0.62254
Neighbor list builds = 13437
Dangerous builds = 0
Total wall time: 22:52:57
