ITEM: TIMESTEP
0
ITEM: NUMBER OF ATOMS
950
ITEM: BOX BOUNDS pp pp pp
6.1947513800704712e-01 3.3170524861999581e+01
6.1947513800704712e-01 3.3170524861999581e+01
6.1947513800704712e-01 3.3170524861999581e+01
ITEM: ATOMS id mol type x y z 
18453 0 5 4.59111 3.86734 1.76468 
13307 0 5 4.43078 5.63633 1.79924 
11290 0 5 2.31149 4.02214 4.14455 
20789 0 5 3.40702 2.76294 3.44572 
21934 0 5 0.760569 5.5672 3.1839 
24111 0 5 1.8941 1.86317 4.83367 
8587 0 5 4.20377 2.58237 5.75639 
7857 0 5 4.66751 3.56386 4.9369 
9744 0 5 1.35745 3.04395 7.87876 
12010 0 5 3.02733 2.69986 9.59119 
12087 0 5 1.94642 4.67329 8.91761 
1145 0 5 3.11685 2.19507 11.1324 
23132 0 5 1.05185 4.37381 11.3378 
17064 0 5 2.69173 4.56871 10.7153 
25875 0 5 4.24772 1.65855 13.2295 
10242 0 5 5.78685 2.29019 13.0266 
25728 0 5 5.92943 1.33903 12.4984 
8892 0 5 3.85807 5.14362 11.7954 
21815 0 5 5.27946 1.37183 13.6713 
21242 0 5 2.74519 5.78509 15.1917 
10211 0 5 5.97039 2.90822 18.013 
7667 0 5 5.91714 2.23253 19.3487 
5547 0 5 0.968944 1.73298 22.6866 
927 0 5 3.85081 1.2331 23.8077 
6799 0 5 3.04663 2.48349 22.397 
20441 0 5 5.0861 4.74098 24.2919 
6302 0 5 3.98885 2.15119 26.4488 
4125 0 5 2.93247 4.12667 26.7426 
24438 0 5 0.997977 5.5553 26.7163 
11487 0 5 4.44149 5.83023 26.2169 
5865 0 5 3.13807 4.17226 29.4671 
20468 0 5 4.79755 1.32753 30.1794 
5018 0 5 4.16592 4.19103 29.6448 
10064 0 5 2.07291 4.67604 30.4999 
117 0 5 2.07648 4.81005 31.8412 
6213 0 5 1.87504 6.63164 0.826912 
4126 0 5 2.19859 10.5405 1.23425 
21728 0 5 4.62966 7.1392 3.72407 
24835 0 5 1.72146 8.31851 3.37227 
16003 0 5 1.49308 9.3521 4.11725 
14711 0 5 3.81374 8.35083 6.95856 
10176 0 5 4.22475 9.2885 7.16273 
10072 0 5 5.7177 7.43785 9.30618 
2523 0 5 3.38155 10.1152 10.4465 
8460 0 5 2.7803 6.78627 12.5899 
19163 0 5 4.54844 7.35615 12.9044 
10264 0 5 3.39868 7.20381 14.475 
2891 0 5 1.04847 9.40216 14.5456 
17355 0 5 3.68808 10.2706 13.5454 
11463 0 5 3.21328 9.03468 16.5071 
18316 0 5 2.85808 9.4722 15.6316 
778 0 5 0.93074 9.6755 16.9451 
26878 0 5 3.55232 11.3676 18.3857 
26314 0 5 1.72753 6.50824 19.0641 
20537 0 5 5.56484 7.80254 19.4538 
9117 0 5 4.51476 11.3323 19.417 
20033 0 5 6.0258 10.7418 20.4886 
25658 0 5 0.885054 9.76312 20.5395 
9242 0 5 5.30481 11.2482 21.2778 
24933 0 5 2.15466 7.97688 25.5386 
24116 0 5 3.30215 10.8871 25.4338 
11969 0 5 4.92455 10.6736 25.5887 
942 0 5 2.19852 7.3465 27.3246 
5254 0 5 2.90904 7.79191 28.1285 
20718 0 5 3.11907 8.56782 28.9751 
24827 0 5 4.36852 8.1399 30.9863 
2486 0 5 5.30286 9.67 29.8521 
6963 0 5 4.50036 7.99719 32.2589 
19879 0 5 2.33351 14.3018 1.3397 
1839 0 5 0.814292 11.6317 2.82606 
18245 0 5 1.30411 16.7218 8.88249 
1892 0 5 3.80958 15.8749 8.19365 
18237 0 5 4.15368 16.6996 10.3253 
20892 0 5 5.77469 15.7852 10.2082 
3808 0 5 5.50237 14.2738 11.5857 
7737 0 5 1.90727 13.1204 13.4076 
15708 0 5 6.03266 12.3237 13.497 
10394 0 5 2.70968 14.0082 13.5309 
5386 0 5 4.02017 14.2908 13.722 
4437 0 5 5.06716 15.5871 14.322 
12125 0 5 2.99206 16.8862 15.8563 
6560 0 5 4.30318 16.4812 16.0818 
18246 0 5 1.98125 15.3473 17.3958 
4639 0 5 1.37777 12.1296 25.6387 
8086 0 5 3.57061 20.8415 0.954384 
12763 0 5 0.848854 18.8071 5.79132 
12949 0 5 5.35361 21.6359 5.56746 
7599 0 5 0.739456 20.1839 7.63876 
10750 0 5 5.96916 21.956 7.07027 
3140 0 5 1.15665 16.9591 11.2419 
7555 0 5 5.48655 18.5275 10.98 
128 0 5 5.94513 18.0863 10.0273 
19319 0 5 1.69403 21.3967 10.867 
20752 0 5 2.55238 17.3001 12.9264 
2281 0 5 2.28623 22.0752 12.9597 
923 0 5 5.85866 22.017 11.9319 
24793 0 5 1.90242 19.2908 14.1914 
21786 0 5 5.14644 22.1494 14.503 
3172 0 5 0.96387 19.94 15.9262 
1437 0 5 5.58167 18.8287 16.4003 
18242 0 5 5.66314 21.2554 15.2728 
17614 0 5 1.39908 17.0487 18.4385 
26559 0 5 5.39066 21.2289 20.9906 
1488 0 5 5.71657 17.4968 22.7137 
2526 0 5 5.80185 20.1924 22.3806 
6506 0 5 1.60402 19.577 24.5424 
17981 0 5 2.78051 19.2777 24.9614 
12300 0 5 5.84073 21.8679 24.5616 
23968 0 5 6.01896 20.83 24.3515 
21938 0 5 0.974543 19.8904 26.2541 
19943 0 5 2.2353 19.8469 29.5161 
22706 0 5 5.05205 20.8872 28.681 
2892 0 5 3.41918 20.3904 29.9436 
19399 0 5 5.78776 17.7287 32.7527 
16424 0 5 5.42512 23.239 1.44793 
7862 0 5 1.65348 24.3464 1.26792 
12508 0 5 3.99765 24.9355 3.44977 
653 0 5 2.03353 27.6775 4.22845 
10580 0 5 1.23718 22.3279 5.32878 
3975 0 5 1.32297 25.9322 6.00657 
6195 0 5 1.73994 22.925 7.31895 
10160 0 5 3.76156 24.8074 6.52444 
22204 0 5 1.76999 27.2665 7.21245 
1387 0 5 1.42377 22.9784 9.36787 
3887 0 5 2.11911 22.7926 8.69615 
14267 0 5 1.9578 23.569 10.1164 
1085 0 5 4.7044 22.4948 10.047 
10253 0 5 2.78089 24.2247 10.9148 
21757 0 5 4.07702 24.6342 9.94239 
7947 0 5 4.98685 24.4414 11.7114 
3522 0 5 3.88676 26.9365 11.7148 
1598 0 5 2.98101 27.2544 13.0922 
23527 0 5 5.06189 26.8687 12.8082 
11420 0 5 5.2338 27.3986 14.8391 
21516 0 5 5.50497 22.6257 16.4134 
22153 0 5 4.01344 23.0285 17.458 
26805 0 5 5.10772 22.814 17.7139 
18045 0 5 3.98126 25.6356 18.0006 
19226 0 5 5.33595 23.061 20.4374 
20205 0 5 2.94483 25.3629 20.0272 
11889 0 5 5.93029 26.3638 18.8107 
4146 0 5 5.67893 25.6454 20.8923 
3934 0 5 1.3661 23.709 24.0316 
26530 0 5 2.0526 26.9947 25.4669 
20452 0 5 3.19704 27.2218 25.1384 
17502 0 5 4.85362 24.8507 26.718 
21905 0 5 4.31187 23.1482 29.0028 
15241 0 5 0.661571 24.3446 33.0525 
5551 0 5 1.65151 30.0124 2.19691 
20417 0 5 1.00667 30.0642 1.05425 
13060 0 5 3.01542 32.6921 2.19271 
16259 0 5 1.33763 31.8426 3.11848 
8001 0 5 2.15295 31.3793 4.9202 
20852 0 5 5.62583 31.4756 4.66566 
25334 0 5 4.73737 31.5991 6.0008 
10622 0 5 3.83638 30.9821 7.10064 
2939 0 5 1.21835 32.6599 6.19745 
7257 0 5 4.64768 32.8241 7.42555 
8043 0 5 1.3185 28.1805 8.40157 
19629 0 5 1.50589 31.1186 9.64703 
26795 0 5 0.709753 28.3854 9.97449 
12895 0 5 3.37902 30.4932 12.4541 
21123 0 5 0.929314 31.5534 13.1353 
1147 0 5 5.6332 33.0382 11.9082 
5582 0 5 4.59518 28.3308 14.6206 
9703 0 5 1.38418 30.5244 13.5745 
20900 0 5 5.12285 30.3354 14.5508 
1151 0 5 5.29838 32.8798 14.1728 
5087 0 5 0.999487 32.3889 16.2458 
8207 0 5 5.07268 32.3325 15.0939 
23609 0 5 5.97727 31.1565 18.2756 
5658 0 5 1.34377 32.0269 17.876 
11671 0 5 1.80078 32.6063 17.0068 
10400 0 5 1.70625 28.9939 18.7549 
16155 0 5 1.26872 32.1708 19.9976 
5041 0 5 0.641594 32.1825 20.9776 
12081 0 5 3.39414 31.2354 23.3784 
19498 0 5 4.41052 30.8103 23.017 
11550 0 5 3.48987 32.2323 22.6993 
17792 0 5 3.54707 32.4154 23.7944 
25870 0 5 2.70925 29.121 25.2383 
2770 0 5 2.62207 31.7749 25.5703 
14559 0 5 1.93325 30.6471 26.347 
13419 0 5 1.67685 32.0724 26.1091 
18906 0 5 3.09209 29.4044 27.7538 
26632 0 5 1.59233 31.91 27.8158 
18884 0 5 1.92037 30.8696 29.7453 
20057 0 5 1.44556 30.914 30.7075 
356 0 5 1.83508 32.253 31.0368 
7276 0 5 5.12701 32.8874 30.0392 
24482 0 5 3.25057 29.8519 32.4844 
13601 0 5 5.66584 31.9104 32.0053 
15652 0 5 7.96158 5.15146 2.82411 
19104 0 5 8.67072 1.06256 5.53209 
6340 0 5 7.53494 3.80851 5.01589 
17518 0 5 8.20247 5.75674 5.9076 
10506 0 5 9.80893 5.61764 4.36955 
12325 0 5 6.23764 1.50695 6.86966 
154 0 5 7.2427 0.95735 7.25621 
5373 0 5 9.68539 3.20341 8.22288 
1974 0 5 6.09923 4.75689 9.08899 
10205 0 5 10.4137 4.92174 8.31831 
14107 0 5 6.52085 4.14293 11.4148 
25471 0 5 10.8268 2.46505 11.1486 
15517 0 5 9.86062 3.08121 9.78384 
9296 0 5 6.18566 2.24269 11.714 
21275 0 5 7.72295 1.60889 14.6654 
23483 0 5 8.52957 1.8096 16.5598 
458 0 5 8.29555 1.03495 17.9681 
26528 0 5 9.44848 0.905168 19.6342 
25789 0 5 11.0045 3.52433 20.3023 
155 0 5 6.3985 4.75931 19.9463 
1814 0 5 8.26028 2.24552 26.1411 
12393 0 5 7.21776 3.22512 29.1902 
16059 0 5 6.80965 4.69549 29.0418 
16074 0 5 9.68768 4.79956 28.8587 
4398 0 5 10.0258 3.08635 30.8099 
20968 0 5 6.64843 5.65966 31.0881 
781 0 5 8.34723 6.3383 4.00635 
14110 0 5 11.4578 7.21387 4.16412 
20840 0 5 6.06154 8.66215 3.52857 
13718 0 5 11.2086 8.15684 3.5597 
175 0 5 7.48943 7.51363 5.11279 
6937 0 5 7.18799 8.59809 5.45287 
18391 0 5 8.07347 10.1625 4.91317 
13323 0 5 9.3536 7.77983 7.41993 
21200 0 5 11.0564 7.14344 7.46914 
23234 0 5 9.50095 10.1613 7.7974 
21356 0 5 9.06987 9.12834 9.1598 
19934 0 5 10.2523 8.157 7.93795 
3171 0 5 9.952 11.0003 11.0474 
15979 0 5 10.9436 10.0163 15.6169 
1332 0 5 7.71636 11.0985 18.2408 
9112 0 5 8.08879 10.0502 17.6732 
21620 0 5 10.0766 6.6441 21.24 
26835 0 5 9.9105 9.39924 21.8844 
4883 0 5 10.5192 8.90309 20.7635 
15221 0 5 6.61482 10.1987 22.2197 
11530 0 5 11.2241 10.5636 21.877 
19495 0 5 7.81985 7.21238 23.8899 
20070 0 5 9.07848 7.55468 22.6574 
4584 0 5 10.4442 9.57573 23.8718 
11982 0 5 10.6529 11.2521 23.076 
17342 0 5 7.83894 6.52316 25.6429 
17235 0 5 6.90653 9.29327 24.9082 
15697 0 5 6.95651 9.63556 25.8496 
18711 0 5 6.725 10.7893 24.4275 
15068 0 5 10.1813 11.401 25.3934 
9531 0 5 8.27487 7.54433 26.597 
19802 0 5 6.50435 7.0462 28.2113 
9593 0 5 7.42102 10.0412 29.7044 
6301 0 5 6.10872 14.2676 0.828706 
23561 0 5 11.2374 14.6931 1.59114 
6691 0 5 7.98396 14.5182 3.91075 
23732 0 5 9.03759 15.4644 3.42351 
4147 0 5 6.41323 11.7319 7.06772 
1868 0 5 9.77475 12.7947 8.76075 
10547 0 5 11.1113 12.15 10.3114 
7960 0 5 8.99332 13.1996 13.1231 
6953 0 5 8.57164 16.5226 11.698 
26204 0 5 7.17348 15.727 14.1556 
18095 0 5 10.9284 15.1799 14.086 
25095 0 5 7.38384 12.5062 21.7217 
18473 0 5 8.10043 13.4314 23.3826 
6508 0 5 7.58354 15.491 23.0902 
18609 0 5 9.1235 15.13 22.5251 
22310 0 5 10.9137 16.5741 23.9926 
8013 0 5 8.77983 13.1633 26.161 
5011 0 5 6.3111 14.1015 29.0737 
25092 0 5 8.04081 13.8854 27.9734 
9430 0 5 9.56954 16.4855 32.2993 
16485 0 5 9.67161 15.3488 32.161 
20947 0 5 10.0509 15.8292 33.0152 
1608 0 5 9.30577 17.671 1.55593 
11858 0 5 8.5415 19.4254 0.898633 
14052 0 5 8.02184 21.7716 4.15209 
15027 0 5 6.95912 20.5935 5.74548 
25476 0 5 9.4774 19.7385 6.13152 
7393 0 5 7.08641 17.7572 10.5572 
7190 0 5 8.91821 17.0747 10.0772 
9686 0 5 7.2028 17.7769 14.3072 
26915 0 5 9.7974 17.0694 19.1881 
25123 0 5 10.7025 21.477 19.2493 
10519 0 5 6.75843 19.614 22.1692 
23477 0 5 7.41868 21.9052 22.878 
17168 0 5 9.10832 21.1147 22.3495 
1828 0 5 7.01785 20.7147 24.4405 
24925 0 5 9.15683 21.0639 25.9057 
24372 0 5 10.6176 17.695 28.2342 
18878 0 5 8.81227 18.6784 29.5883 
6706 0 5 7.2782 20.3753 30.6689 
9417 0 5 10.2398 18.4691 32.1343 
13426 0 5 7.88669 19.6879 31.7928 
21889 0 5 7.69211 21.1167 32.3858 
19024 0 5 10.1821 21.4568 31.7028 
25165 0 5 9.4988 22.8371 1.94169 
439 0 5 7.97046 22.501 0.771683 
11041 0 5 8.86821 27.6162 4.73409 
23733 0 5 8.19759 24.0674 9.03586 
6147 0 5 7.43416 24.2776 8.38472 
5150 0 5 9.96009 24.0198 9.83422 
12364 0 5 8.45814 23.4256 12.8688 
19277 0 5 7.29296 23.1753 14.6937 
9804 0 5 8.62569 25.0081 13.294 
11554 0 5 8.52406 25.1631 14.5115 
15823 0 5 6.91116 24.7061 16.7235 
7335 0 5 8.20171 26.6262 15.3665 
1599 0 5 10.4461 24.3875 17.9639 
14444 0 5 11.041 24.9489 17.3356 
7264 0 5 7.33209 23.9866 18.9575 
10174 0 5 6.32778 23.1057 19.0096 
10631 0 5 10.8405 24.3766 19.6275 
18075 0 5 6.85749 23.5395 22.1712 
8589 0 5 8.72906 22.6822 21.7524 
4858 0 5 10.5465 27.5726 22.2558 
23974 0 5 8.3232 23.877 22.9065 
7738 0 5 8.63812 26.5985 22.5399 
16723 0 5 8.68238 22.3466 24.2461 
13762 0 5 10.3768 23.1568 24.8206 
19982 0 5 6.99539 24.308 24.3844 
25872 0 5 6.14023 23.0656 26.3635 
26472 0 5 8.37274 26.9869 26.2175 
16258 0 5 7.33766 25.8066 29.142 
24960 0 5 6.7685 24.802 28.2914 
25925 0 5 10.9057 25.6334 27.9746 
13620 0 5 9.60208 26.0654 29.4294 
10911 0 5 11.005 22.5649 29.9084 
21689 0 5 9.05157 24.3246 30.3566 
5741 0 5 8.16101 23.6185 33.1067 
22652 0 5 10.9147 28.9265 3.03636 
12127 0 5 8.21988 32.8936 3.69625 
24206 0 5 10.4184 32.2026 4.05093 
26794 0 5 7.63211 32.3683 4.38585 
21180 0 5 11.4455 32.0926 4.3324 
8399 0 5 9.00702 31.1047 8.82045 
19463 0 5 8.69338 28.2626 9.66722 
13038 0 5 10.265 32.9826 11.0289 
7020 0 5 11.3038 30.382 12.4515 
5408 0 5 7.74775 29.8761 13.2825 
1924 0 5 8.31603 31.3155 13.4244 
13464 0 5 8.10576 32.438 13.6745 
941 0 5 9.17776 28.4455 16.1888 
1684 0 5 7.08379 29.6304 16.1719 
2397 0 5 8.6112 30.6858 18.664 
10273 0 5 9.38099 32.2667 18.0196 
13710 0 5 7.57011 28.4175 20.0844 
2040 0 5 9.32246 28.836 18.7284 
4157 0 5 9.52495 28.1915 20.2769 
20951 0 5 6.86431 32.5693 20.0324 
17622 0 5 8.4707 29.3857 20.8988 
23677 0 5 6.279 31.9676 21.2001 
25200 0 5 8.22462 32.2232 20.8749 
7975 0 5 7.83062 29.897 22.9046 
23481 0 5 7.81984 28.0961 27.2049 
19097 0 5 9.03871 28.0942 25.9619 
22579 0 5 6.99933 30.0419 27.5348 
25322 0 5 8.40213 27.8551 29.4786 
14987 0 5 8.71389 29.9567 28.9801 
20125 0 5 10.1007 31.4591 29.2638 
1380 0 5 9.81824 28.0585 29.6787 
8107 0 5 9.66177 28.6325 31.1518 
25927 0 5 8.85177 28.7677 31.9814 
6222 0 5 7.73763 30.3399 32.4389 
10229 0 5 7.57897 32.2889 33.0052 
2702 0 5 13.8884 1.29113 1.97354 
4191 0 5 16.0491 1.6369 1.92335 
8370 0 5 11.8419 1.82138 3.50301 
21432 0 5 13.5685 2.83837 4.14603 
935 0 5 12.938 5.20751 6.34089 
10027 0 5 13.316 5.17923 7.37569 
9632 0 5 15.1575 1.92925 8.72046 
25090 0 5 13.4336 4.23316 8.53367 
24549 0 5 13.6598 3.72399 10.0875 
10260 0 5 13.9799 1.44453 13.0076 
8164 0 5 12.2782 1.33698 14.8183 
13816 0 5 12.9248 2.79264 13.7118 
26495 0 5 14.5332 1.95606 15.8682 
21248 0 5 16.1686 1.63422 15.1612 
1727 0 5 11.6189 2.00903 25.8806 
9045 0 5 11.9058 1.13894 25.3501 
18839 0 5 11.6689 5.81618 27.3386 
24530 0 5 13.5621 0.782347 28.5566 
14312 0 5 14.726 3.35793 29.0314 
22198 0 5 12.8281 4.86218 28.3112 
7414 0 5 11.8664 2.42224 30.416 
7967 0 5 12.8642 1.71442 32.5131 
19798 0 5 16.6078 3.55152 32.4072 
19987 0 5 14.13 4.74012 32.4796 
18855 0 5 12.9295 6.88186 1.48101 
24480 0 5 12.0546 6.25242 1.4549 
20193 0 5 14.3917 7.44033 1.59358 
2980 0 5 16.0729 6.09684 1.7018 
14190 0 5 15.2608 8.04124 1.17992 
26637 0 5 15.0608 11.2184 2.19731 
5897 0 5 16.1635 11.4228 2.09063 
23468 0 5 16.5113 8.39206 3.93309 
20433 0 5 16.1403 9.25526 4.69232 
752 0 5 13.3411 6.89496 7.20225 
12922 0 5 12.6871 8.01196 7.8024 
2802 0 5 13.4285 9.24489 9.04174 
21994 0 5 12.9158 7.59408 10.7374 
12598 0 5 13.9916 8.41774 12.3286 
10164 0 5 16.7421 8.36171 14.6361 
26629 0 5 13.5369 8.21658 16.0734 
26745 0 5 15.6394 8.23137 16.2184 
22271 0 5 12.2757 6.11175 20.3952 
3992 0 5 13.6908 6.87665 18.8811 
10129 0 5 14.5931 6.31973 18.7989 
20618 0 5 12.0862 9.93554 22.1882 
4851 0 5 15.8623 9.4093 22.587 
18322 0 5 12.6182 7.76748 24.4508 
1302 0 5 12.0425 11.205 24.2361 
21867 0 5 12.4545 10.4793 26.5865 
16884 0 5 14.9164 6.20825 29.0707 
1836 0 5 14.9429 7.53224 28.7182 
12096 0 5 16.3156 7.06311 29.4773 
725 0 5 12.5876 8.30264 28.6602 
1870 0 5 15.4837 11.0476 32.4558 
18569 0 5 14.6321 14.5338 2.8892 
8953 0 5 12.3768 12.6207 5.52101 
4761 0 5 13.6853 13.3189 5.26743 
18141 0 5 11.8559 14.1285 7.00769 
7273 0 5 13.6877 14.6936 6.58083 
12917 0 5 11.9528 15.2706 7.72909 
17784 0 5 12.9139 12.439 9.14495 
10888 0 5 11.82 14.1588 14.2606 
6606 0 5 16.0106 14.3155 16.6656 
10907 0 5 12.5601 15.9849 19.3667 
26260 0 5 12.8454 13.4834 25.9486 
26363 0 5 13.1415 14.4522 28.3097 
17226 0 5 15.0293 16.7073 29.2496 
20492 0 5 13.2985 15.1022 29.203 
21228 0 5 13.2085 15.1325 30.2333 
15381 0 5 14.8144 13.7745 33.0713 
14712 0 5 14.779 17.1206 2.27923 
17409 0 5 13.2103 19.6266 1.67267 
11240 0 5 15.061 21.841 0.824908 
8158 0 5 15.7419 20.7663 1.31355 
14877 0 5 16.0308 21.4937 1.99586 
20108 0 5 12.2275 18.842 8.92326 
16728 0 5 14.6384 17.5825 11.2925 
20308 0 5 15.7349 17.5645 10.7629 
20152 0 5 14.6747 18.9027 13.3327 
20208 0 5 13.9979 21.8541 13.3613 
19472 0 5 14.034 17.8973 16.3179 
22703 0 5 14.2272 21.7195 17.5218 
12046 0 5 16.1284 21.8502 19.4601 
658 0 5 11.8817 21.2394 21.1003 
5663 0 5 16.3512 21.7295 20.5603 
26809 0 5 12.8672 17.169 24.0689 
12939 0 5 13.7884 19.5621 22.9658 
19719 0 5 13.6358 20.4533 23.414 
19711 0 5 11.7181 18.6687 24.8258 
10372 0 5 15.0361 22.4784 2.3646 
782 0 5 14.4689 25.8858 2.24402 
21312 0 5 16.8222 23.8928 3.75836 
23557 0 5 15.9901 27.2473 8.95031 
9267 0 5 16.3336 26.8239 15.0078 
2267 0 5 12.8034 22.3736 18.5677 
18832 0 5 15.9164 23.8351 18.6613 
23622 0 5 13.0069 25.3501 18.5868 
5032 0 5 14.8994 25.6762 16.9836 
82 0 5 15.1591 26.744 18.5428 
15889 0 5 12.5621 24.2637 18.7295 
23963 0 5 16.6118 22.4905 21.1924 
1297 0 5 14.0057 23.9186 23.1167 
2189 0 5 15.4052 24.1038 24.4745 
10555 0 5 15.0294 25.7704 25.7311 
14356 0 5 16.807 25.6245 25.4487 
17279 0 5 15.5421 24.1006 27.798 
25101 0 5 12.0536 24.2024 27.9213 
5688 0 5 15.9453 23.0788 32.0925 
24334 0 5 14.6907 25.3446 32.0581 
14867 0 5 12.6914 29.0931 0.701956 
26932 0 5 16.5218 30.3669 1.17096 
3637 0 5 16.4818 32.5374 1.19583 
2015 0 5 13.2288 33.0811 3.68107 
6236 0 5 13.7582 28.8821 4.77944 
237 0 5 16.1708 28.4527 5.01332 
16281 0 5 14.2402 29.8934 4.96295 
208 0 5 13.9626 29.7719 6.2235 
13965 0 5 16.1391 28.3083 8.54883 
26364 0 5 14.9932 32.298 8.17453 
18634 0 5 11.5945 32.1534 9.82963 
15375 0 5 16.4687 32.0315 11.9139 
106 0 5 14.6421 30.5074 14.3736 
13770 0 5 12.5421 30.6173 15.1009 
25663 0 5 13.72 29.8309 16.8134 
26022 0 5 14.853 27.9732 18.4321 
1372 0 5 13.5516 30.2679 18.7233 
13302 0 5 15.2263 32.8031 20.878 
15307 0 5 14.283 29.8614 32.3921 
18087 0 5 15.4614 33.1204 32.6769 
18933 0 5 15.2238 32.3241 32.0476 
23057 0 5 19.3055 0.825236 1.16856 
21953 0 5 21.491 1.46209 1.43422 
12757 0 5 18.0099 5.39353 1.67658 
13470 0 5 17.3999 4.18396 5.16021 
16124 0 5 20.3809 0.903258 6.43954 
18825 0 5 18.5393 3.78817 7.64489 
21435 0 5 19.973 2.91461 7.42192 
1379 0 5 19.4908 4.54308 6.47138 
20330 0 5 17.7224 3.48351 9.43437 
3856 0 5 20.6415 0.633009 13.2213 
11990 0 5 18.8198 4.20405 12.6217 
921 0 5 18.8682 1.33168 14.1142 
21834 0 5 21.0997 2.02736 14.2763 
19998 0 5 18.8929 2.40529 18.1201 
7754 0 5 22.3143 3.48046 18.6296 
18493 0 5 17.1661 1.68779 19.1595 
12603 0 5 20.342 3.67749 20.042 
9644 0 5 20.1245 0.675071 20.619 
15894 0 5 18.9747 5.40479 21.0875 
16943 0 5 19.6021 2.22805 22.6332 
23865 0 5 17.667 1.06295 27.1152 
7697 0 5 17.0488 0.949831 29.3597 
4621 0 5 18.3851 1.94785 30.8594 
4752 0 5 19.5869 2.64338 30.8278 
23802 0 5 19.5416 0.775834 32.6409 
3175 0 5 18.8133 1.238 31.9213 
4793 0 5 20.7356 5.86113 31.7364 
2999 0 5 20.6037 4.25406 32.9667 
23535 0 5 20.5227 8.30457 0.895241 
11303 0 5 21.5178 10.261 2.92253 
681 0 5 17.1326 9.4331 5.55296 
9110 0 5 19.4516 10.3875 6.04368 
14713 0 5 17.4375 8.27217 6.15547 
7813 0 5 19.6702 8.79701 9.12047 
10798 0 5 19.3921 10.5106 9.05337 
8441 0 5 18.3442 7.41615 10.1739 
2791 0 5 20.8782 6.16616 12.3464 
9937 0 5 21.9439 11.2241 13.0052 
26406 0 5 17.2851 6.8977 14.3342 
25403 0 5 22.3149 7.74769 16.1246 
22933 0 5 18.7056 6.27321 16.9794 
18909 0 5 20.7228 9.07085 18.3494 
4482 0 5 19.0554 9.50725 19.9471 
2438 0 5 21.3122 9.80734 21.8706 
17913 0 5 20.92 7.36179 23.5273 
1276 0 5 17.632 9.02031 24.1036 
14986 0 5 21.4705 10.2577 23.7316 
9442 0 5 20.799 9.83676 22.9279 
19120 0 5 18.4332 8.36215 24.3472 
20128 0 5 19.3096 8.63267 27.5224 
21239 0 5 21.1881 9.89154 26.5196 
16332 0 5 20.5348 6.41928 27.9068 
15685 0 5 18.823 8.29099 30.9283 
660 0 5 17.6349 9.84962 31.8557 
25694 0 5 18.0217 10.8716 31.416 
17170 0 5 22.2894 12.932 4.09774 
16154 0 5 22.0878 15.09 7.40265 
4140 0 5 20.8568 11.7892 8.0653 
3120 0 5 17.9088 13.2455 10.8973 
8842 0 5 19.3876 12.3153 10.2606 
26155 0 5 17.3614 13.4152 9.75986 
6201 0 5 19.4912 14.5391 13.1985 
13082 0 5 19.0826 13.3864 11.7446 
373 0 5 19.7134 11.6408 13.6845 
11143 0 5 22.2995 16.1892 14.1016 
9328 0 5 21.3378 11.6707 16.5938 
16131 0 5 21.3259 15.2105 16.7733 
14531 0 5 18.2626 14.0209 16.9434 
23542 0 5 18.3552 13.3962 19.5164 
24210 0 5 19.4791 16.0888 20.7492 
3631 0 5 22.2331 16.6267 21.2496 
4337 0 5 21.7646 11.556 23.352 
23983 0 5 20.866 14.1307 22.8043 
1605 0 5 21.9626 14.9934 23.2271 
22385 0 5 18.128 12.7598 24.1712 
13562 0 5 20.8749 11.5818 24.9658 
23191 0 5 19.1511 12.7598 26.5965 
766 0 5 22.1055 13.3708 27.7402 
21034 0 5 20.5662 11.8635 28.2603 
4885 0 5 17.1889 21.8512 2.35256 
10373 0 5 21.1703 20.6843 2.37069 
19689 0 5 20.0943 21.7774 3.04911 
6848 0 5 21.2253 17.7485 10.3924 
24829 0 5 20.1267 19.1465 11.8418 
22279 0 5 19.3771 19.9123 12.7006 
3126 0 5 21.5342 17.911 13.5794 
23343 0 5 18.5879 19.6739 14.3375 
1869 0 5 19.2166 21.6464 14.7525 
25421 0 5 20.7889 22.0811 17.0222 
20447 0 5 21.2219 19.9907 19.129 
8583 0 5 20.6667 21.1109 20.0542 
4078 0 5 21.0739 21.9701 19.2124 
6275 0 5 19.1694 22.295 25.6676 
1666 0 5 19.2045 21.2945 25.9975 
15295 0 5 20.9701 18.2243 28.2072 
15903 0 5 21.0909 19.1932 28.0852 
1713 0 5 17.5514 23.6959 0.973885 
18287 0 5 19.4745 27.5078 2.46198 
3568 0 5 22.1482 27.6516 3.82273 
4801 0 5 20.6829 27.2885 5.93205 
6696 0 5 20.7409 24.424 6.23324 
22662 0 5 18.0977 26.7239 6.89682 
24276 0 5 22.2239 27.1215 7.47794 
10890 0 5 18.3975 22.476 21.0208 
16746 0 5 17.058 25.836 20.7722 
7236 0 5 20.8805 22.7473 25.1306 
4129 0 5 19.2825 24.2449 24.647 
9546 0 5 16.9858 23.3142 28.5119 
22848 0 5 18.6994 23.7133 29.6074 
12483 0 5 20.5878 23.1279 32.3232 
8200 0 5 18.4126 25.9082 33.164 
16108 0 5 17.8095 30.282 1.40279 
19754 0 5 21.7858 32.9771 1.48374 
19072 0 5 19.188 28.5373 2.45117 
6288 0 5 20.3816 30.4845 4.11436 
25338 0 5 21.3853 28.1439 5.37621 
4326 0 5 20.488 31.547 4.28276 
20111 0 5 19.901 32.2672 4.74728 
17500 0 5 19.598 31.053 6.25303 
24649 0 5 18.6364 33.0553 9.22432 
25314 0 5 17.4325 31.426 10.1945 
3974 0 5 17.6568 31.1065 11.9173 
6023 0 5 17.6857 30.9373 14.2277 
26356 0 5 19.2494 31.049 14.5053 
10120 0 5 18.0224 31.7921 13.3207 
6535 0 5 19.841 32.6008 16.1992 
13 0 5 20.1447 28.2846 18.5645 
4377 0 5 16.9136 31.8072 17.8411 
23721 0 5 20.4728 32.0678 18.2097 
6602 0 5 16.9693 29.3597 20.1079 
24437 0 5 17.5666 30.7553 20.184 
4446 0 5 20.2024 32.7293 22.5048 
26595 0 5 21.8387 32.9784 25.4803 
10958 0 5 21.1282 31.7533 26.2293 
8077 0 5 20.1826 29.0801 28.3639 
21888 0 5 20.6976 29.2769 30.938 
20696 0 5 16.952 33.1111 31.3239 
3049 0 5 17.6037 29.466 31.909 
25060 0 5 20.9448 28.7574 31.7615 
6601 0 5 21.6004 29.7386 33.0168 
18214 0 5 22.4333 1.12527 1.95621 
11348 0 5 25.7434 5.89693 2.01892 
8536 0 5 24.1714 2.42904 2.92995 
10199 0 5 24.3678 5.27134 2.52504 
19985 0 5 24.9487 4.39192 4.05768 
15599 0 5 23.4166 1.21094 5.83048 
19445 0 5 23.9372 4.40139 12.5767 
18882 0 5 27.5461 5.26068 15.0171 
19310 0 5 22.9221 1.2466 15.3585 
16185 0 5 24.215 1.50047 16.5519 
16385 0 5 22.5156 2.60578 17.8847 
3002 0 5 26.3178 3.51356 18.5543 
21855 0 5 22.9338 0.847495 19.129 
6832 0 5 25.5482 2.72168 20.0228 
416 0 5 26.3828 2.31138 22.8488 
25838 0 5 27.1017 5.50077 23.1082 
6523 0 5 25.1474 3.63478 25.3926 
19794 0 5 23.6516 2.69654 26.9053 
14050 0 5 24.2277 5.86353 27.4162 
26435 0 5 25.1734 4.94227 27.3819 
19353 0 5 24.2086 4.81309 26.7985 
9108 0 5 22.5981 2.57322 28.8408 
10416 0 5 26.9811 3.95598 29.7805 
15615 0 5 24.8952 4.936 31.0474 
26455 0 5 24.1956 4.77042 29.8679 
1509 0 5 25.3113 4.73907 29.7151 
4626 0 5 24.0437 6.49092 12.2978 
22021 0 5 23.6523 7.39265 13.026 
22226 0 5 26.8255 11.4567 12.6632 
5500 0 5 24.8693 10.0246 13.8357 
9898 0 5 25.9982 9.83502 14.0954 
6022 0 5 24.4694 8.36481 16.1524 
5326 0 5 22.9502 10.4245 16.0949 
10858 0 5 23.8639 11.3877 15.2895 
16896 0 5 25.8023 11.2945 16.7044 
3855 0 5 24.1841 9.30499 18.008 
18479 0 5 23.445 11.388 17.3221 
4571 0 5 25.604 8.19921 18.9135 
26436 0 5 26.5333 8.43079 23.7022 
14552 0 5 22.4027 6.70438 25.863 
22670 0 5 27.013 8.1763 25.6422 
2353 0 5 24.3348 7.81695 26.9901 
23638 0 5 25.7364 7.45339 27.06 
18228 0 5 26.7633 8.98401 26.4417 
14819 0 5 27.0811 6.40572 31.8602 
19690 0 5 26.4938 12.0296 0.843717 
16019 0 5 25.4338 14.5905 3.15891 
6541 0 5 26.2452 11.6982 6.70331 
26540 0 5 26.7595 15.575 8.77311 
12416 0 5 22.9435 12.4204 11.076 
6840 0 5 23.6323 12.632 10.1467 
7990 0 5 27.6247 16.2501 9.73005 
9161 0 5 25.5865 12.1693 12.6755 
21864 0 5 23.133 13.8228 11.9922 
13922 0 5 27.4726 13.9775 12.2164 
8835 0 5 24.3006 16.3092 11.7197 
25015 0 5 27.5707 12.4204 14.2534 
24303 0 5 27.7212 13.2896 14.9284 
14140 0 5 23.7852 15.4748 14.371 
10182 0 5 24.229 15.972 19.3674 
18053 0 5 27.3953 16.3015 19.307 
8949 0 5 25.5034 13.752 20.5597 
14327 0 5 26.2807 14.6603 21.6222 
5734 0 5 26.4963 15.4009 27.403 
2736 0 5 24.2649 17.3607 1.99866 
20479 0 5 27.629 18.0259 2.12636 
20045 0 5 25.9633 20.8367 1.52705 
22718 0 5 27.0488 21.6791 1.22973 
1338 0 5 24.893 17.9057 3.32993 
1096 0 5 25.1321 17.0931 5.96063 
9335 0 5 24.1505 20.5879 4.69295 
16175 0 5 25.3139 17.9003 7.34299 
12913 0 5 27.5778 17.9737 7.00764 
9071 0 5 26.2089 18.7128 6.4267 
589 0 5 26.8978 19.143 7.29958 
14346 0 5 25.5255 19.7374 9.61226 
12207 0 5 24.7525 20.565 7.89396 
15479 0 5 25.3039 18.6902 11.7332 
11150 0 5 23.558 21.1332 11.7161 
3706 0 5 27.2599 18.5383 14.2125 
13106 0 5 23.8078 19.6008 14.1768 
23985 0 5 27.6324 18.8343 15.0635 
15684 0 5 23.9083 21.2415 16.501 
14554 0 5 22.5592 17.1489 17.1646 
20373 0 5 23.2011 19.3201 19.653 
15807 0 5 26.694 18.7163 19.0087 
24467 0 5 24.0742 20.7706 18.9841 
3989 0 5 25.9488 22.1113 20.1711 
9054 0 5 22.8056 19.5408 21.7612 
268 0 5 25.8605 21.3884 21.3026 
13921 0 5 27.0623 21.405 21.505 
25128 0 5 22.9536 18.08 23.1225 
14463 0 5 26.1681 18.9367 22.872 
10118 0 5 26.379 21.2105 22.3945 
9793 0 5 25.6803 18.1959 25.4974 
23439 0 5 23.1253 22.147 24.3509 
22853 0 5 23.4932 21.502 25.484 
23010 0 5 23.7356 18.377 27.518 
21026 0 5 27.1562 18.8246 27.4975 
10367 0 5 25.9892 21.9558 27.2187 
11864 0 5 26.15 21.1976 26.5268 
3929 0 5 23.86 17.8138 30.4806 
13779 0 5 26.2464 20.1496 30.4223 
3268 0 5 24.4129 18.3701 32.7637 
9771 0 5 23.0075 18.7221 32.1879 
5391 0 5 26.2463 19.081 31.9434 
24805 0 5 26.6887 22.869 1.34521 
23461 0 5 26.9486 23.0149 3.64754 
7216 0 5 25.9154 23.3221 5.1444 
14100 0 5 23.9103 25.5278 4.46735 
16193 0 5 25.76 25.2478 5.1222 
18136 0 5 22.4391 22.421 6.07449 
6049 0 5 26.0488 23.1782 8.42527 
1486 0 5 27.635 26.6433 8.92837 
1433 0 5 24.7566 24.7796 11.4956 
12428 0 5 24.767 26.5149 11.9375 
26808 0 5 26.9424 27.1642 12.3519 
3557 0 5 26.9089 23.0607 14.8686 
25279 0 5 25.979 25.4517 15.5197 
14355 0 5 22.6101 26.516 16.328 
11329 0 5 24.7381 24.2922 19.2937 
4321 0 5 25.4917 27.0299 20.3119 
14146 0 5 25.3707 23.4128 21.0631 
11471 0 5 26.5669 22.6352 22.304 
17499 0 5 25.8835 27.5527 21.7172 
17817 0 5 27.2909 26.3073 20.6253 
15709 0 5 22.7001 26.2272 22.5188 
25099 0 5 24.155 23.8496 24.5529 
9068 0 5 27.7256 25.6524 25.2768 
21471 0 5 26.18 26.5052 25.4836 
10620 0 5 22.931 25.287 28.3612 
20833 0 5 26.2517 25.7022 30.0116 
18641 0 5 27.4366 27.4245 31.3891 
12049 0 5 25.461 29.4166 1.89304 
10811 0 5 27.1126 29.0932 1.96267 
11682 0 5 27.7208 28.2956 0.681601 
6094 0 5 23.61 32.9513 0.966357 
23809 0 5 23.7648 29.7703 2.80806 
4440 0 5 23.1312 32.0878 4.20731 
5249 0 5 22.3862 31.5983 4.947 
20736 0 5 27.2831 30.0607 6.58657 
10773 0 5 26.8649 29.4654 8.13989 
11658 0 5 25.2967 31.3422 9.59803 
22171 0 5 24.419 28.2347 11.0664 
13376 0 5 23.9865 31.86 10.8769 
10539 0 5 23.1338 31.9259 9.82997 
12296 0 5 24.642 30.1836 12.413 
1983 0 5 26.3197 32.239 12.7907 
5320 0 5 27.5426 30.728 13.2928 
3195 0 5 24.1814 28.7478 15.9981 
17539 0 5 25.5759 29.1358 16.7719 
7582 0 5 22.5054 31.5616 21.4999 
16757 0 5 24.7572 28.5262 22.8038 
24954 0 5 22.3749 32.4432 22.4102 
12223 0 5 24.4271 28.7394 24.5063 
7795 0 5 25.6163 30.5971 27.2232 
944 0 5 26.4148 30.6071 26.3124 
17241 0 5 27.5051 28.905 28.5796 
159 0 5 23.0926 33.0662 29.2499 
26602 0 5 27.6181 29.3988 31.339 
24313 0 5 26.9391 30.5881 29.8015 
26798 0 5 32.7379 1.57612 1.90546 
16273 0 5 28.4145 2.53876 3.45992 
21872 0 5 29.3932 1.8448 5.6363 
2396 0 5 32.1842 2.43911 5.24522 
6769 0 5 28.7408 4.84169 5.96853 
25623 0 5 31.5205 1.79802 7.39316 
23400 0 5 31.2877 4.18076 6.15228 
7373 0 5 29.5774 4.56991 7.69062 
25642 0 5 29.0215 4.97043 9.02021 
9886 0 5 28.6494 2.61122 11.3718 
17373 0 5 29.4888 1.76858 11.5401 
21024 0 5 29.0238 3.04436 12.4867 
7897 0 5 32.0801 2.49683 12.6017 
25852 0 5 30.5771 4.34859 12.4846 
18633 0 5 29.8254 5.79346 12.6129 
3267 0 5 32.1355 1.74373 14.6545 
16152 0 5 30.4366 1.13589 19.314 
8455 0 5 31.7047 0.761768 21.5151 
24317 0 5 31.6358 3.2892 22.762 
2520 0 5 32.6387 5.57493 23.7734 
22449 0 5 32.2219 2.05735 24.8355 
6926 0 5 32.5914 0.961344 24.7406 
16719 0 5 30.2662 5.37063 28.3365 
1853 0 5 32.0586 1.75105 29.9274 
5290 0 5 29.0531 3.79153 32.5387 
18038 0 5 33.0064 7.92754 1.70688 
21784 0 5 32.8276 6.50246 2.83224 
18873 0 5 29.0527 10.0209 3.57783 
16443 0 5 32.9091 7.25163 6.03487 
24606 0 5 30.5222 7.33277 6.9491 
25920 0 5 33.1635 6.08844 6.09083 
12102 0 5 32.3954 11.4163 11.2515 
20870 0 5 33.1185 8.24583 12.3493 
20300 0 5 32.2239 9.82349 13.0645 
4384 0 5 30.3811 7.42389 13.8861 
10694 0 5 32.9374 9.49207 13.7111 
7418 0 5 29.1203 6.75088 15.8661 
11760 0 5 31.6297 6.2586 16.6776 
26516 0 5 31.6561 7.56083 15.3946 
16291 0 5 32.5341 8.12518 15.8953 
7564 0 5 31.9543 7.45822 16.9001 
5381 0 5 28.2851 9.00773 18.3178 
10455 0 5 30.4556 9.85835 17.0037 
18082 0 5 33.0806 9.02259 19.8751 
18404 0 5 28.6765 6.87717 21.125 
21523 0 5 29.1632 9.73455 22.2788 
26625 0 5 30.4048 10.2234 20.9495 
17520 0 5 30.7312 7.5775 25.656 
5210 0 5 29.5855 6.9586 24.3284 
20538 0 5 28.0935 8.01167 25.3 
24121 0 5 30.1329 8.60467 24.4261 
7909 0 5 28.6853 8.06505 26.2954 
11784 0 5 28.0281 8.89989 26.0509 
20981 0 5 32.8365 10.9397 26.7422 
26432 0 5 31.7993 10.9292 26.0986 
14353 0 5 32.621 10.4588 32.6199 
20532 0 5 28.0456 13.0624 0.792738 
371 0 5 30.4007 12.7224 0.876491 
12755 0 5 32.9473 15.081 1.35332 
5078 0 5 27.8254 13.617 4.70213 
22795 0 5 29.9875 15.899 7.55741 
9717 0 5 28.6389 14.2638 9.08277 
20589 0 5 29.2959 16.3772 9.11568 
9063 0 5 32.3893 15.5448 10.3715 
23267 0 5 29.5812 16.8164 12.6544 
22735 0 5 31.1036 16.257 12.7792 
4557 0 5 32.6012 12.7702 13.7976 
3001 0 5 31.5095 12.8779 15.4901 
4808 0 5 31.1892 13.3818 16.4751 
397 0 5 30.7872 14.5424 16.182 
1071 0 5 32.8158 15.6526 15.5497 
18231 0 5 32.8712 12.8977 17.7635 
12419 0 5 30.4 16.0565 17.1043 