ITEM: TIMESTEP
0
ITEM: NUMBER OF ATOMS
950
ITEM: BOX BOUNDS pp pp pp
0.0000000000000000e+00 3.3789999999999999e+01
0.0000000000000000e+00 3.3789999999999999e+01
0.0000000000000000e+00 3.3789999999999999e+01
ITEM: ATOMS id mol type x y z 
117 0 5 3.8 3.8 0.5 
1924 0 5 4.9 3.8 2.5 
2702 0 5 0.5 1.6 3.5 
4621 0 5 4.9 0.5 5.5 
4557 0 5 1.6 3.8 5.5 
6301 0 5 0.5 0.5 7.5 
6302 0 5 0.5 1.6 7.5 
7257 0 5 1.6 3.8 8.5 
7264 0 5 2.7 3.8 8.5 
8158 0 5 1.6 2.7 9.5 
8164 0 5 2.7 3.8 9.5 
9063 0 5 2.7 2.7 10.5 
9117 0 5 3.8 3.8 10.5 
10858 0 5 1.6 2.7 12.5 
10805 0 5 0.5 4.9 12.5 
11760 0 5 1.6 0.5 13.5 
12603 0 5 0.5 2.7 14.5 
13620 0 5 3.8 0.5 15.5 
13562 0 5 2.7 1.6 15.5 
14463 0 5 2.7 2.7 16.5 
16259 0 5 1.6 1.6 18.5 
16258 0 5 1.6 2.7 18.5 
19024 0 5 4.9 3.8 21.5 
19802 0 5 0.5 1.6 22.5 
20757 0 5 1.6 3.8 23.5 
23461 0 5 2.7 0.5 26.5 
24303 0 5 0.5 2.7 27.5 
25322 0 5 4.9 1.6 28.5 
128 0 5 4.9 8.2 0.5 
1853 0 5 1.6 8.2 2.5 
1868 0 5 2.7 8.2 2.5 
1869 0 5 2.7 9.3 2.5 
1870 0 5 2.7 10.4 2.5 
2770 0 5 2.7 10.4 3.5 
4626 0 5 4.9 6 5.5 
5408 0 5 0.5 8.2 6.5 
8107 0 5 0.5 7.1 9.5 
9054 0 5 1.6 7.1 10.5 
9068 0 5 2.7 8.2 10.5 
9112 0 5 3.8 9.3 10.5 
10027 0 5 4.9 7.1 11.5 
10028 0 5 4.9 8.2 11.5 
10911 0 5 3.8 10.4 12.5 
12714 0 5 3.8 7.1 14.5 
15307 0 5 0.5 7.1 17.5 
17226 0 5 4.9 6 19.5 
17168 0 5 2.7 8.2 19.5 
17170 0 5 2.7 10.4 19.5 
18053 0 5 1.6 8.2 20.5 
18906 0 5 0.5 6 21.5 
18909 0 5 0.5 9.3 21.5 
20752 0 5 1.6 9.3 23.5 
21728 0 5 4.9 8.2 24.5 
23527 0 5 4.9 7.1 26.5 
23468 0 5 2.7 8.2 26.5 
25314 0 5 3.8 7.1 28.5 
26155 0 5 1.6 6 29.5 
13 0 5 0.5 13.7 0.5 
106 0 5 3.8 15.9 0.5 
1814 0 5 0.5 14.8 2.5 
3706 0 5 3.8 15.9 4.5 
4571 0 5 2.7 11.5 5.5 
7273 0 5 2.7 13.7 8.5 
7335 0 5 4.9 15.9 8.5 
8207 0 5 3.8 14.8 9.5 
9071 0 5 2.7 11.5 10.5 
9110 0 5 3.8 11.5 10.5 
9108 0 5 3.8 13.7 10.5 
10811 0 5 0.5 11.5 12.5 
10874 0 5 2.7 14.8 12.5 
10907 0 5 3.8 14.8 12.5 
14531 0 5 4.9 11.5 16.5 
15375 0 5 2.7 15.9 17.5 
16332 0 5 4.9 12.6 18.5 
16273 0 5 2.7 13.7 18.5 
17235 0 5 4.9 15.9 19.5 
18075 0 5 2.7 15.9 20.5 
19934 0 5 4.9 14.8 22.5 
20833 0 5 4.9 13.7 23.5 
23535 0 5 4.9 15.9 26.5 
24372 0 5 2.7 12.6 27.5 
24313 0 5 0.5 13.7 27.5 
25334 0 5 4.9 14.8 28.5 
944 0 5 1.6 18.1 1.5 
942 0 5 1.6 20.3 1.5 
941 0 5 1.6 21.4 1.5 
921 0 5 0.5 22.5 1.5 
2802 0 5 3.8 20.3 3.5 
4636 0 5 4.9 17 5.5 
4639 0 5 4.9 20.3 5.5 
5500 0 5 3.8 22.5 6.5 
6340 0 5 1.6 22.5 7.5 
7216 0 5 0.5 17 8.5 
7276 0 5 2.7 17 8.5 
8200 0 5 3.8 22.5 9.5 
9045 0 5 1.6 17 10.5 
12703 0 5 3.8 19.2 14.5 
13601 0 5 3.8 21.4 15.5 
14444 0 5 1.6 18.1 16.5 
15381 0 5 2.7 22.5 17.5 
16281 0 5 2.7 22.5 18.5 
17241 0 5 4.9 22.5 19.5 
18045 0 5 1.6 17 20.5 
18136 0 5 4.9 17 20.5 
18141 0 5 4.9 22.5 20.5 
19879 0 5 2.7 20.3 22.5 
20718 0 5 0.5 19.2 23.5 
20840 0 5 4.9 21.4 23.5 
21620 0 5 0.5 21.4 24.5 
22579 0 5 2.7 20.3 25.5 
23477 0 5 2.7 18.1 26.5 
23481 0 5 2.7 22.5 26.5 
24317 0 5 0.5 18.1 27.5 
24437 0 5 4.9 18.1 27.5 
24438 0 5 4.9 19.2 27.5 
25338 0 5 4.9 19.2 28.5 
25279 0 5 2.7 20.3 28.5 
26204 0 5 3.8 18.1 29.5 
82 0 5 2.7 23.6 0.5 
923 0 5 0.5 24.7 1.5 
935 0 5 1.6 28 1.5 
1839 0 5 1.6 23.6 2.5 
1836 0 5 1.6 26.9 2.5 
2736 0 5 1.6 26.9 3.5 
3637 0 5 1.6 25.8 4.5 
4584 0 5 2.7 25.8 5.5 
7236 0 5 1.6 26.9 8.5 
9937 0 5 1.6 25.8 11.5 
11784 0 5 2.7 25.8 13.5 
14543 0 5 4.9 24.7 16.5 
18082 0 5 2.7 23.6 20.5 
18038 0 5 1.6 24.7 20.5 
18095 0 5 3.8 28 20.5 
19943 0 5 4.9 24.7 22.5 
20736 0 5 1.6 26.9 23.5 
23439 0 5 1.6 23.6 26.5 
23542 0 5 4.9 23.6 26.5 
23483 0 5 2.7 24.7 26.5 
927 0 5 0.5 29.1 1.5 
1828 0 5 0.5 30.2 2.5 
1892 0 5 3.8 31.3 2.5 
2791 0 5 3.8 32.4 3.5 
3631 0 5 1.6 32.4 4.5 
5547 0 5 4.9 29.1 6.5 
10888 0 5 2.7 30.2 12.5 
10890 0 5 2.7 32.4 12.5 
16291 0 5 3.8 32.4 18.5 
18087 0 5 2.7 29.1 20.5 
18933 0 5 1.6 30.2 21.5 
20789 0 5 2.7 31.3 23.5 
21689 0 5 2.7 31.3 24.5 
24334 0 5 1.6 29.1 27.5 
237 0 5 8.2 3.8 0.5 
185 0 5 7.1 4.9 0.5 
1085 0 5 7.1 4.9 1.5 
1145 0 5 9.3 4.9 1.5 
2040 0 5 8.2 0.5 2.5 
1983 0 5 7.1 2.7 2.5 
2939 0 5 8.2 1.6 3.5 
2999 0 5 10.4 1.6 3.5 
5582 0 5 7.1 1.6 6.5 
6541 0 5 9.3 0.5 7.5 
8399 0 5 10.4 1.6 9.5 
9242 0 5 9.3 1.6 10.5 
9296 0 5 10.4 4.9 10.5 
10199 0 5 10.4 1.6 11.5 
11041 0 5 9.3 0.5 12.5 
12783 0 5 7.1 2.7 14.5 
15479 0 5 6 1.6 17.5 
15599 0 5 10.4 1.6 17.5 
15478 0 5 6 2.7 17.5 
16443 0 5 9.3 2.7 18.5 
16385 0 5 7.1 4.9 18.5 
17279 0 5 6 1.6 19.5 
17342 0 5 9.3 1.6 19.5 
18242 0 5 9.3 1.6 20.5 
18237 0 5 8.2 3.8 20.5 
18245 0 5 9.3 4.9 20.5 
19982 0 5 7.1 1.6 22.5 
19985 0 5 7.1 4.9 22.5 
20045 0 5 9.3 4.9 22.5 
20939 0 5 8.2 1.6 23.5 
21784 0 5 7.1 3.8 24.5 
21844 0 5 9.3 3.8 24.5 
23638 0 5 8.2 2.7 26.5 
24480 0 5 6 0.5 27.5 
24482 0 5 7.1 1.6 27.5 
175 0 5 6 6 0.5 
247 0 5 9.3 7.1 0.5 
1074 0 5 6 7.1 1.5 
1147 0 5 9.3 7.1 1.5 
1071 0 5 6 10.4 1.5 
1974 0 5 6 7.1 2.5 
4748 0 5 9.3 8.2 5.5 
4793 0 5 10.4 8.2 5.5 
6535 0 5 8.2 6 7.5 
7373 0 5 6 8.2 8.5 
7389 0 5 7.1 9.3 8.5 
10072 0 5 6 9.3 11.5 
11889 0 5 7.1 9.3 13.5 
12895 0 5 10.4 6 14.5 
18246 0 5 9.3 6 20.5 
18295 0 5 10.4 6 20.5 
18231 0 5 8.2 10.4 20.5 
19147 0 5 9.3 7.1 21.5 
19072 0 5 6 9.3 21.5 
19987 0 5 7.1 7.1 22.5 
20033 0 5 8.2 8.2 22.5 
20947 0 5 9.3 7.1 23.5 
21786 0 5 7.1 6 24.5 
21834 0 5 8.2 7.1 24.5 
22735 0 5 8.2 6 25.5 
22795 0 5 10.4 6 25.5 
24549 0 5 9.3 9.3 27.5 
1151 0 5 9.3 11.5 1.5 
2891 0 5 7.1 11.5 3.5 
2892 0 5 7.1 12.6 3.5 
3887 0 5 10.4 14.8 4.5 
3855 0 5 9.3 15.9 4.5 
4752 0 5 9.3 12.6 5.5 
5688 0 5 10.4 13.7 6.5 
7393 0 5 7.1 13.7 8.5 
9254 0 5 9.3 14.8 10.5 
10129 0 5 8.2 12.6 11.5 
11990 0 5 10.4 11.5 13.5 
17355 0 5 9.3 15.9 19.5 
18229 0 5 8.2 12.6 20.5 
18228 0 5 8.2 13.7 20.5 
18287 0 5 10.4 14.8 20.5 
20870 0 5 6 11.5 23.5 
20951 0 5 9.3 11.5 23.5 
20892 0 5 7.1 12.6 23.5 
21889 0 5 10.4 12.6 24.5 
21888 0 5 10.4 13.7 24.5 
21855 0 5 9.3 15.9 24.5 
22670 0 5 6 11.5 25.5 
23629 0 5 8.2 12.6 26.5 
24530 0 5 8.2 11.5 27.5 
24467 0 5 6 14.8 27.5 
1096 0 5 7.1 17 1.5 
2980 0 5 10.4 22.5 3.5 
3856 0 5 9.3 17 4.5 
4761 0 5 9.3 22.5 5.5 
5658 0 5 9.3 19.2 6.5 
6523 0 5 8.2 19.2 7.5 
6560 0 5 9.3 21.4 7.5 
9161 0 5 6 21.4 10.5 
10064 0 5 6 18.1 11.5 
10182 0 5 10.4 20.3 11.5 
10160 0 5 9.3 21.4 11.5 
10120 0 5 8.2 22.5 11.5 
11864 0 5 6 18.1 13.5 
11982 0 5 10.4 20.3 13.5 
12763 0 5 6 19.2 14.5 
15464 0 5 6 18.1 17.5 
16485 0 5 10.4 17 18.5 
16424 0 5 8.2 18.1 18.5 
18197 0 5 7.1 18.1 20.5 
19097 0 5 7.1 18.1 21.5 
19120 0 5 8.2 22.5 21.5 
20057 0 5 9.3 18.1 22.5 
19998 0 5 7.1 19.2 22.5 
20900 0 5 7.1 21.4 23.5 
20981 0 5 10.4 21.4 23.5 
22662 0 5 6 20.3 25.5 
23622 0 5 8.2 20.3 26.5 
23561 0 5 6 21.4 26.5 
25421 0 5 8.2 21.4 28.5 
26356 0 5 9.3 17 29.5 
26260 0 5 6 22.5 29.5 
159 0 5 6 23.6 0.5 
155 0 5 6 28 0.5 
2015 0 5 8.2 28 2.5 
5663 0 5 9.3 24.7 6.5 
6506 0 5 7.1 28 7.5 
7418 0 5 8.2 24.7 8.5 
8377 0 5 10.4 25.8 9.5 
9156 0 5 6 26.9 10.5 
10118 0 5 8.2 24.7 11.5 
10164 0 5 9.3 25.8 11.5 
10176 0 5 10.4 26.9 11.5 
10958 0 5 6 24.7 12.5 
11962 0 5 9.3 23.6 13.5 
11858 0 5 6 24.7 13.5 
12757 0 5 6 25.8 14.5 
12755 0 5 6 28 14.5 
13762 0 5 9.3 23.6 15.5 
13779 0 5 10.4 23.6 15.5 
13718 0 5 8.2 24.7 15.5 
14559 0 5 6 23.6 16.5 
15517 0 5 8.2 25.8 17.5 
19163 0 5 9.3 24.7 21.5 
19104 0 5 7.1 25.8 21.5 
21757 0 5 6 25.8 24.5 
21864 0 5 9.3 25.8 24.5 
21815 0 5 8.2 28 24.5 
22703 0 5 7.1 24.7 25.5 
22718 0 5 8.2 24.7 25.5 
22706 0 5 7.1 28 25.5 
23557 0 5 6 25.8 26.5 
23677 0 5 10.4 25.8 26.5 
25403 0 5 7.1 24.7 28.5 
25476 0 5 10.4 26.9 28.5 
26363 0 5 9.3 24.7 29.5 
26364 0 5 9.3 25.8 29.5 
154 0 5 6 29.1 0.5 
208 0 5 7.1 30.2 0.5 
268 0 5 9.3 30.2 0.5 
3808 0 5 7.1 30.2 4.5 
5551 0 5 6 32.4 6.5 
6508 0 5 7.1 30.2 7.5 
6512 0 5 8.2 31.3 7.5 
7414 0 5 8.2 29.1 8.5 
8370 0 5 9.3 32.4 9.5 
9267 0 5 9.3 29.1 10.5 
10174 0 5 10.4 29.1 11.5 
11913 0 5 8.2 30.2 13.5 
11969 0 5 9.3 31.3 13.5 
13710 0 5 7.1 32.4 15.5 
13770 0 5 9.3 32.4 15.5 
14554 0 5 6 29.1 16.5 
14552 0 5 6 31.3 16.5 
17373 0 5 10.4 30.2 19.5 
18214 0 5 8.2 29.1 20.5 
20070 0 5 9.3 32.4 22.5 
20968 0 5 9.3 30.2 23.5 
20852 0 5 6 31.3 23.5 
21867 0 5 9.3 29.1 24.5 
21872 0 5 10.4 31.3 24.5 
22652 0 5 6 31.3 25.5 
23609 0 5 7.1 31.3 26.5 
25471 0 5 10.4 32.4 28.5 
26314 0 5 8.2 29.1 29.5 
356 0 5 12.6 4.9 0.5 
416 0 5 14.8 4.9 0.5 
3001 0 5 11.5 0.5 3.5 
3120 0 5 14.8 0.5 3.5 
3002 0 5 11.5 1.6 3.5 
4801 0 5 11.5 0.5 5.5 
4858 0 5 12.6 2.7 5.5 
6601 0 5 11.5 0.5 7.5 
6602 0 5 11.5 1.6 7.5 
7564 0 5 13.7 3.8 8.5 
8460 0 5 12.6 0.5 9.5 
9417 0 5 14.8 3.8 10.5 
10260 0 5 12.6 0.5 11.5 
10264 0 5 13.7 3.8 11.5 
10205 0 5 11.5 4.9 11.5 
12125 0 5 15.9 4.9 13.5 
13921 0 5 15.9 0.5 15.5 
13922 0 5 15.9 1.6 15.5 
14819 0 5 14.8 1.6 16.5 
17520 0 5 14.8 0.5 19.5 
17518 0 5 14.8 2.7 19.5 
19319 0 5 14.8 1.6 21.5 
21123 0 5 15.9 2.7 23.5 
22021 0 5 15.9 0.5 24.5 
21905 0 5 11.5 4.9 24.5 
25623 0 5 15.9 2.7 28.5 
26516 0 5 14.8 4.9 29.5 
3126 0 5 15.9 6 3.5 
4808 0 5 11.5 8.2 5.5 
4851 0 5 12.6 10.4 5.5 
6606 0 5 11.5 6 7.5 
7555 0 5 12.6 6 8.5 
8455 0 5 12.6 6 9.5 
9430 0 5 15.9 10.4 10.5 
10253 0 5 12.6 8.2 11.5 
12127 0 5 15.9 7.1 13.5 
12010 0 5 11.5 10.4 13.5 
15652 0 5 12.6 9.3 17.5 
17409 0 5 11.5 9.3 19.5 
20108 0 5 11.5 8.2 22.5 
20152 0 5 12.6 9.3 22.5 
21054 0 5 12.6 7.1 23.5 
21953 0 5 12.6 8.2 24.5 
22853 0 5 12.6 8.2 25.5 
24606 0 5 11.5 6 27.5 
26406 0 5 11.5 6 29.5 
26455 0 5 12.6 6 29.5 
26528 0 5 15.9 8.2 29.5 
26530 0 5 15.9 10.4 29.5 
371 0 5 13.7 11.5 0.5 
373 0 5 13.7 13.7 0.5 
1332 0 5 15.9 12.6 1.5 
3049 0 5 12.6 12.6 3.5 
3974 0 5 13.7 14.8 4.5 
3975 0 5 13.7 15.9 4.5 
6706 0 5 14.8 15.9 7.5 
10211 0 5 11.5 11.5 11.5 
10273 0 5 13.7 13.7 11.5 
11150 0 5 12.6 11.5 12.5 
12049 0 5 12.6 12.6 13.5 
12046 0 5 12.6 15.9 13.5 
12949 0 5 12.6 12.6 14.5 
12913 0 5 11.5 13.7 14.5 
14711 0 5 11.5 11.5 16.5 
14712 0 5 11.5 12.6 16.5 
14713 0 5 11.5 13.7 16.5 
15709 0 5 14.8 12.6 17.5 
15708 0 5 14.8 13.7 17.5 
15615 0 5 11.5 15.9 17.5 
19310 0 5 14.8 11.5 21.5 
20111 0 5 11.5 11.5 22.5 
20208 0 5 14.8 13.7 22.5 
22848 0 5 12.6 13.7 25.5 
22933 0 5 15.9 13.7 25.5 
23809 0 5 14.8 12.6 26.5 
24649 0 5 12.6 12.6 27.5 
24647 0 5 12.6 14.8 27.5 
26472 0 5 13.7 12.6 29.5 
439 0 5 15.9 20.3 0.5 
1276 0 5 13.7 17 1.5 
1338 0 5 15.9 19.2 1.5 
1302 0 5 14.8 20.3 1.5 
3140 0 5 15.9 21.4 3.5 
5741 0 5 12.6 21.4 6.5 
8536 0 5 15.9 17 9.5 
8441 0 5 12.6 21.4 9.5 
10242 0 5 12.6 20.3 11.5 
11143 0 5 12.6 19.2 12.5 
11238 0 5 15.9 19.2 12.5 
11240 0 5 15.9 21.4 12.5 
12102 0 5 14.8 20.3 13.5 
12081 0 5 13.7 22.5 13.5 
12917 0 5 11.5 18.1 14.5 
13038 0 5 15.9 19.2 14.5 
13816 0 5 11.5 17 15.5 
17502 0 5 14.8 20.3 19.5 
17539 0 5 15.9 20.3 19.5 
17500 0 5 14.8 22.5 19.5 
18316 0 5 11.5 17 20.5 
18404 0 5 14.8 18.1 20.5 
19277 0 5 13.7 18.1 21.5 
19341 0 5 15.9 22.5 21.5 
20205 0 5 14.8 17 22.5 
23802 0 5 14.8 20.3 26.5 
23721 0 5 11.5 22.5 26.5 
26505 0 5 14.8 17 29.5 
26540 0 5 15.9 21.4 29.5 
397 0 5 14.8 25.8 0.5 
1297 0 5 14.8 25.8 1.5 
3923 0 5 11.5 24.7 4.5 
4883 0 5 13.7 24.7 5.5 
4885 0 5 13.7 26.9 5.5 
6696 0 5 14.8 26.9 7.5 
6746 0 5 15.9 28 7.5 
7582 0 5 13.7 23.6 8.5 
7599 0 5 14.8 23.6 8.5 
9442 0 5 15.9 23.6 10.5 
9335 0 5 12.6 28 10.5 
12096 0 5 14.8 26.9 13.5 
12922 0 5 11.5 23.6 14.5 
12939 0 5 12.6 23.6 14.5 
15684 0 5 13.7 25.8 17.5 
15697 0 5 14.8 25.8 17.5 
15685 0 5 13.7 26.9 17.5 
17499 0 5 14.8 23.6 19.5 
17423 0 5 11.5 24.7 19.5 
18322 0 5 11.5 23.6 20.5 
18335 0 5 12.6 28 20.5 
19226 0 5 11.5 28 21.5 
20125 0 5 11.5 26.9 22.5 
21024 0 5 11.5 25.8 23.5 
21026 0 5 11.5 28 23.5 
21938 0 5 12.6 24.7 24.5 
25642 0 5 15.9 23.6 28.5 
26436 0 5 12.6 26.9 29.5 
26435 0 5 12.6 28 29.5 
26495 0 5 14.8 28 29.5 
2187 0 5 13.7 29.1 2.5 
2189 0 5 13.7 31.3 2.5 
3934 0 5 12.6 29.1 4.5 
3929 0 5 11.5 31.3 4.5 
3989 0 5 13.7 31.3 4.5 
3992 0 5 14.8 31.3 4.5 
5734 0 5 12.6 29.1 6.5 
6691 0 5 14.8 32.4 7.5 
9328 0 5 11.5 30.2 10.5 
10229 0 5 11.5 31.3 11.5 
12087 0 5 13.7 29.1 13.5 
18391 0 5 14.8 32.4 20.5 
20128 0 5 11.5 30.2 22.5 
20193 0 5 14.8 30.2 22.5 
21034 0 5 12.6 29.1 23.5 
21934 0 5 12.6 29.1 24.5 
21994 0 5 14.8 29.1 24.5 
23733 0 5 12.6 30.2 26.5 
23732 0 5 12.6 31.3 26.5 
23850 0 5 15.9 32.4 26.5 
26432 0 5 12.6 31.3 29.5 
1380 0 5 17 0.5 1.5 
1379 0 5 17 1.6 1.5 
1437 0 5 19.2 3.8 1.5 
1385 0 5 18.1 4.9 1.5 
2281 0 5 18.1 0.5 2.5 
2397 0 5 21.4 3.8 2.5 
2396 0 5 21.4 4.9 2.5 
4140 0 5 19.2 0.5 4.5 
4078 0 5 17 2.7 4.5 
5041 0 5 20.3 0.5 5.5 
6840 0 5 19.2 0.5 7.5 
7738 0 5 19.2 2.7 8.5 
7737 0 5 19.2 3.8 8.5 
8583 0 5 18.1 2.7 9.5 
9543 0 5 20.3 2.7 10.5 
12300 0 5 21.4 0.5 13.5 
12296 0 5 21.4 4.9 13.5 
13082 0 5 18.1 1.6 14.5 
14100 0 5 21.4 0.5 15.5 
14880 0 5 17 0.5 16.5 
14877 0 5 17 3.8 16.5 
15903 0 5 22.5 2.7 17.5 
18479 0 5 17 1.6 20.5 
19498 0 5 21.4 2.7 21.5 
19445 0 5 20.3 4.9 21.5 
21180 0 5 17 0.5 23.5 
21239 0 5 19.2 1.6 23.5 
21242 0 5 20.3 1.6 23.5 
21177 0 5 17 3.8 23.5 
22198 0 5 21.4 2.7 24.5 
22204 0 5 22.5 3.8 24.5 
26637 0 5 19.2 3.8 29.5 
1387 0 5 18.1 7.1 1.5 
1433 0 5 19.2 8.2 1.5 
1372 0 5 17 9.3 1.5 
1509 0 5 22.5 9.3 1.5 
3175 0 5 17 6 3.5 
3172 0 5 17 9.3 3.5 
3171 0 5 17 10.4 3.5 
4146 0 5 20.3 6 4.5 
4147 0 5 20.3 7.1 4.5 
4191 0 5 21.4 10.4 4.5 
5032 0 5 19.2 9.3 5.5 
6848 0 5 20.3 8.2 7.5 
6832 0 5 19.2 9.3 7.5 
7795 0 5 21.4 6 8.5 
8587 0 5 18.1 7.1 9.5 
8589 0 5 18.1 9.3 9.5 
9546 0 5 20.3 6 10.5 
9593 0 5 21.4 8.2 10.5 
9531 0 5 19.2 10.4 10.5 
10506 0 5 22.5 6 11.5 
10373 0 5 17 8.2 11.5 
10372 0 5 17 9.3 11.5 
10509 0 5 22.5 9.3 11.5 
11348 0 5 20.3 8.2 12.5 
11290 0 5 18.1 10.4 12.5 
14107 0 5 22.5 7.1 15.5 
14050 0 5 20.3 10.4 15.5 
14110 0 5 22.5 10.4 15.5 
15894 0 5 21.4 7.1 17.5 
16746 0 5 20.3 6 18.5 
18473 0 5 17 8.2 20.5 
18609 0 5 22.5 9.3 20.5 
19495 0 5 21.4 6 21.5 
20406 0 5 22.5 6 22.5 
21248 0 5 20.3 8.2 23.5 
24775 0 5 17 6 27.5 
24835 0 5 19.2 6 27.5 
26632 0 5 19.2 9.3 29.5 
589 0 5 21.4 12.6 0.5 
1488 0 5 21.4 13.7 1.5 
1486 0 5 21.4 15.9 1.5 
2353 0 5 20.3 13.7 2.5 
2267 0 5 17 14.8 2.5 
3195 0 5 18.1 15.9 3.5 
4129 0 5 19.2 12.6 4.5 
4126 0 5 19.2 15.9 4.5 
5087 0 5 21.4 14.8 5.5 
6769 0 5 17 12.6 7.5 
7813 0 5 22.5 13.7 8.5 
7667 0 5 17 14.8 8.5 
7754 0 5 20.3 14.8 8.5 
10367 0 5 17 14.8 11.5 
10394 0 5 18.1 14.8 11.5 
10455 0 5 20.3 15.9 11.5 
11329 0 5 19.2 12.6 12.5 
13093 0 5 18.1 13.7 14.5 
14052 0 5 20.3 12.6 15.5 
14867 0 5 17 14.8 16.5 
14987 0 5 21.4 14.8 16.5 
14986 0 5 21.4 15.9 16.5 
15889 0 5 21.4 12.6 17.5 
16728 0 5 19.2 13.7 18.5 
17568 0 5 17 13.7 19.5 
18493 0 5 18.1 13.7 20.5 
20330 0 5 19.2 11.5 22.5 
21312 0 5 22.5 12.6 23.5 
21228 0 5 19.2 13.7 23.5 
22153 0 5 20.3 13.7 24.5 
24829 0 5 19.2 12.6 27.5 
24793 0 5 18.1 13.7 27.5 
24827 0 5 19.2 14.8 27.5 
25789 0 5 21.4 12.6 28.5 
25728 0 5 19.2 13.7 28.5 
25694 0 5 18.1 14.8 28.5 
26629 0 5 19.2 12.6 29.5 
26595 0 5 18.1 15.9 29.5 
4125 0 5 19.2 17 4.5 
4157 0 5 20.3 18.1 4.5 
5865 0 5 17 17 6.5 
5897 0 5 18.1 18.1 6.5 
6799 0 5 18.1 20.3 7.5 
7697 0 5 18.1 18.1 8.5 
10519 0 5 22.5 20.3 11.5 
10400 0 5 18.1 21.4 11.5 
11420 0 5 22.5 21.4 12.5 
12223 0 5 19.2 19.2 13.5 
13060 0 5 17 22.5 14.5 
13965 0 5 17 17 15.5 
15823 0 5 19.2 19.2 17.5 
16757 0 5 20.3 18.1 18.5 
16723 0 5 19.2 19.2 18.5 
16721 0 5 19.2 21.4 18.5 
17622 0 5 19.2 20.3 19.5 
19396 0 5 18.1 17 21.5 
19399 0 5 18.1 20.3 21.5 
20417 0 5 22.5 18.1 22.5 
20300 0 5 18.1 21.4 22.5 
21200 0 5 18.1 21.4 23.5 
23057 0 5 20.3 18.1 25.5 
23865 0 5 17 17 26.5 
23985 0 5 21.4 17 26.5 
23983 0 5 21.4 19.2 26.5 
24762 0 5 17 20.3 27.5 
24822 0 5 19.2 20.3 27.5 
25663 0 5 17 19.2 28.5 
26625 0 5 19.2 17 29.5 
458 0 5 17 24.7 0.5 
5018 0 5 19.2 24.7 5.5 
5078 0 5 21.4 24.7 5.5 
6022 0 5 22.5 23.6 6.5 
6023 0 5 22.5 24.7 6.5 
6926 0 5 22.5 28 7.5 
10416 0 5 19.2 26.9 11.5 
11303 0 5 18.1 24.7 12.5 
12325 0 5 22.5 26.9 13.5 
13106 0 5 18.1 28 14.5 
16719 0 5 19.2 23.6 18.5 
16762 0 5 20.3 23.6 18.5 
17723 0 5 22.5 24.7 19.5 
19463 0 5 20.3 24.7 21.5 
19524 0 5 22.5 25.8 21.5 
21275 0 5 21.4 28 23.5 
22226 0 5 22.5 28 24.5 
23963 0 5 20.3 24.7 26.5 
24805 0 5 18.1 26.9 27.5 
24925 0 5 22.5 26.9 27.5 
24755 0 5 17 28 27.5 
25658 0 5 17 24.7 28.5 
26559 0 5 17 23.6 29.5 
26602 0 5 18.1 23.6 29.5 
3267 0 5 20.3 29.1 3.5 
3268 0 5 20.3 30.2 3.5 
5011 0 5 19.2 32.4 5.5 
12207 0 5 18.1 29.1 13.5 
15027 0 5 22.5 29.1 16.5 
15807 0 5 18.1 29.1 17.5 
17614 0 5 19.2 29.1 19.5 
18453 0 5 17 30.2 20.5 
18569 0 5 20.3 31.3 20.5 
19353 0 5 17 30.2 21.5 
19472 0 5 21.4 31.3 21.5 
19470 0 5 20.3 32.4 21.5 
20308 0 5 18.1 30.2 22.5 
20373 0 5 21.4 30.2 22.5 
22171 0 5 21.4 32.4 24.5 
23010 0 5 18.1 32.4 25.5 
23974 0 5 21.4 29.1 26.5 
23968 0 5 20.3 30.2 26.5 
660 0 5 23.6 0.5 0.5 
658 0 5 23.6 2.7 0.5 
778 0 5 28 2.7 0.5 
725 0 5 26.9 4.9 0.5 
2520 0 5 25.8 0.5 2.5 
2523 0 5 26.9 2.7 2.5 
4321 0 5 26.9 0.5 4.5 
4377 0 5 28 3.8 4.5 
7020 0 5 25.8 0.5 7.5 
6963 0 5 24.7 2.7 7.5 
6957 0 5 23.6 3.8 7.5 
7862 0 5 24.7 1.6 8.5 
7857 0 5 23.6 3.8 8.5 
9717 0 5 25.8 3.8 10.5 
10620 0 5 25.8 0.5 11.5 
10622 0 5 26.9 1.6 11.5 
11463 0 5 24.7 2.7 12.5 
12419 0 5 25.8 1.6 13.5 
12364 0 5 24.7 3.8 13.5 
12416 0 5 25.8 4.9 13.5 
13323 0 5 26.9 2.7 14.5 
13376 0 5 28 4.9 14.5 
16019 0 5 25.8 1.6 17.5 
17817 0 5 25.8 3.8 19.5 
21356 0 5 23.6 4.9 23.5 
24121 0 5 26.9 0.5 26.5 
24116 0 5 25.8 4.9 26.5 
24960 0 5 23.6 0.5 27.5 
25920 0 5 25.8 0.5 28.5 
25925 0 5 26.9 4.9 28.5 
26878 0 5 28 2.7 29.5 
653 0 5 23.6 8.2 0.5 
2526 0 5 26.9 6 2.5 
4326 0 5 26.9 6 4.5 
6953 0 5 23.6 8.2 7.5 
7975 0 5 28 6 8.5 
9668 0 5 24.7 8.2 10.5 
9771 0 5 28 10.4 10.5 
10555 0 5 23.6 6 11.5 
11530 0 5 26.9 10.4 12.5 
12428 0 5 26.9 8.2 13.5 
15068 0 5 24.7 8.2 16.5 
15955 0 5 23.6 6 17.5 
16014 0 5 25.8 7.1 17.5 
16074 0 5 28 7.1 17.5 
18711 0 5 25.8 10.4 20.5 
19629 0 5 26.9 9.3 21.5 
20468 0 5 24.7 8.2 22.5 
20452 0 5 23.6 9.3 22.5 
21471 0 5 28 10.4 23.5 
24111 0 5 25.8 10.4 26.5 
25015 0 5 25.8 6 27.5 
24954 0 5 23.6 7.1 27.5 
24952 0 5 23.6 9.3 27.5 
25071 0 5 28 10.4 27.5 
25927 0 5 26.9 7.1 28.5 
25852 0 5 23.6 9.3 28.5 
25870 0 5 24.7 10.4 28.5 
766 0 5 28 15.9 0.5 
1608 0 5 25.8 13.7 1.5 
1666 0 5 28 15.9 1.5 
5150 0 5 23.6 11.5 5.5 
5210 0 5 25.8 11.5 5.5 
6049 0 5 23.6 12.6 6.5 
7909 0 5 25.8 12.6 8.5 
7967 0 5 28 14.8 8.5 
8835 0 5 26.9 15.9 9.5 
10631 0 5 26.9 11.5 11.5 
10547 0 5 23.6 14.8 11.5 
11471 0 5 24.7 11.5 12.5 
13307 0 5 25.8 14.8 14.5 
14267 0 5 28 14.8 15.5 
14146 0 5 23.6 15.9 15.5 
16069 0 5 28 12.6 17.5 
20532 0 5 26.9 12.6 22.5 
20447 0 5 23.6 14.8 22.5 
21432 0 5 26.9 12.6 23.5 
21435 0 5 26.9 15.9 23.5 
22271 0 5 24.7 11.5 24.5 
22310 0 5 25.8 11.5 24.5 
23234 0 5 26.9 14.8 25.5 
23267 0 5 28 14.8 25.5 
25872 0 5 24.7 12.6 28.5 
25875 0 5 24.7 15.9 28.5 
26809 0 5 25.8 12.6 29.5 
26808 0 5 25.8 13.7 29.5 
26746 0 5 23.6 15.9 29.5 
26835 0 5 26.9 15.9 29.5 
681 0 5 24.7 22.5 0.5 
1605 0 5 25.8 17 1.5 
4337 0 5 26.9 18.1 4.5 
7960 0 5 28 22.5 8.5 
9644 0 5 23.6 18.1 10.5 
9703 0 5 25.8 19.2 10.5 
10580 0 5 24.7 21.4 11.5 
13302 0 5 25.8 20.3 14.5 
14140 0 5 23.6 22.5 15.5 
16003 0 5 25.8 19.2 17.5 
15979 0 5 24.7 20.3 17.5 
18641 0 5 23.6 21.4 20.5 
20537 0 5 26.9 18.1 22.5 
20538 0 5 26.9 19.2 22.5 
20479 0 5 24.7 20.3 22.5 
20441 0 5 23.6 21.4 22.5 
22279 0 5 24.7 20.3 24.5 
25039 0 5 26.9 20.3 27.5 
25060 0 5 28 22.5 27.5 
26745 0 5 23.6 17 29.5 
26805 0 5 25.8 17 29.5 
746 0 5 26.9 28 0.5 
1599 0 5 25.8 23.6 1.5 
1598 0 5 25.8 24.7 1.5 
2438 0 5 23.6 24.7 2.5 
2486 0 5 24.7 28 2.5 
6937 0 5 23.6 25.8 7.5 
7897 0 5 25.8 25.8 8.5 
8842 0 5 26.9 23.6 9.5 
9744 0 5 26.9 25.8 10.5 
9686 0 5 24.7 28 10.5 
10539 0 5 23.6 23.6 11.5 
16059 0 5 28 23.6 17.5 
16943 0 5 26.9 24.7 18.5 
16884 0 5 24.7 25.8 18.5 
16896 0 5 25.8 26.9 18.5 
17784 0 5 24.7 25.8 19.5 
25838 0 5 23.6 24.7 28.5 
26798 0 5 25.8 24.7 29.5 
26795 0 5 25.8 28 29.5 
752 0 5 28 31.3 0.5 
5254 0 5 28 29.1 5.5 
5249 0 5 26.9 31.3 5.5 
6094 0 5 25.8 29.1 6.5 
6147 0 5 26.9 29.1 6.5 
7947 0 5 26.9 29.1 8.5 
9632 0 5 23.6 31.3 10.5 
11487 0 5 24.7 29.1 12.5 
11554 0 5 28 29.1 12.5 
11550 0 5 26.9 32.4 12.5 
12393 0 5 25.8 30.2 13.5 
14190 0 5 24.7 32.4 15.5 
17792 0 5 25.8 31.3 19.5 
18634 0 5 23.6 29.1 20.5 
18633 0 5 23.6 30.2 20.5 
20433 0 5 23.6 30.2 22.5 
20492 0 5 25.8 31.3 22.5 
23132 0 5 23.6 31.3 25.5 
23191 0 5 25.8 32.4 25.5 
24933 0 5 23.6 30.2 27.5 
25050 0 5 26.9 32.4 27.5 
26794 0 5 25.8 29.1 29.5 
781 0 5 29.1 0.5 0.5 
782 0 5 29.1 1.6 0.5 
783 0 5 29.1 2.7 0.5 
1684 0 5 29.1 3.8 1.5 
3483 0 5 29.1 2.7 3.5 
4440 0 5 30.2 0.5 4.5 
4384 0 5 29.1 3.8 4.5 
4437 0 5 30.2 3.8 4.5 
6236 0 5 30.2 4.9 6.5 
8043 0 5 31.3 2.7 8.5 
9898 0 5 32.4 2.7 10.5 
10798 0 5 32.4 2.7 11.5 
12483 0 5 29.1 2.7 13.5 
12598 0 5 32.4 2.7 13.5 
15241 0 5 31.3 0.5 16.5 
18839 0 5 30.2 1.6 20.5 
19798 0 5 32.4 2.7 21.5 
20696 0 5 32.4 4.9 22.5 
22385 0 5 29.1 4.9 24.5 
23400 0 5 32.4 0.5 25.5 
23343 0 5 31.3 2.7 25.5 
25200 0 5 32.4 0.5 27.5 
25982 0 5 29.1 1.6 28.5 
4446 0 5 31.3 6 4.5 
5290 0 5 29.1 10.4 5.5 
5391 0 5 32.4 10.4 5.5 
7990 0 5 29.1 10.4 8.5 
8949 0 5 31.3 9.3 9.5 
9789 0 5 29.1 9.3 10.5 
10750 0 5 31.3 10.4 11.5 
14346 0 5 31.3 6 15.5 
15295 0 5 32.4 6 16.5 
16193 0 5 32.4 8.2 17.5 
16131 0 5 30.2 10.4 17.5 
18832 0 5 30.2 9.3 20.5 
19794 0 5 32.4 7.1 21.5 
19689 0 5 29.1 9.3 21.5 
19690 0 5 29.1 10.4 21.5 
20589 0 5 29.1 9.3 22.5 
22449 0 5 31.3 9.3 24.5 
25090 0 5 29.1 10.4 27.5 
26932 0 5 30.2 9.3 29.5 
1727 0 5 30.2 14.8 1.5 
5326 0 5 30.2 15.9 5.5 
5386 0 5 32.4 15.9 5.5 
6288 0 5 32.4 13.7 6.5 
6195 0 5 29.1 15.9 6.5 
7190 0 5 32.4 11.5 7.5 
8086 0 5 32.4 15.9 8.5 
8892 0 5 29.1 12.6 9.5 
8953 0 5 31.3 13.7 9.5 
9793 0 5 29.1 13.7 10.5 
9886 0 5 32.4 15.9 10.5 
10694 0 5 29.1 14.8 11.5 
13426 0 5 30.2 15.9 14.5 
14353 0 5 31.3 13.7 15.5 
14327 0 5 30.2 14.8 15.5 
14355 0 5 31.3 15.9 15.5 
16152 0 5 31.3 12.6 17.5 
16154 0 5 31.3 14.8 17.5 
16155 0 5 31.3 15.9 17.5 
18855 0 5 31.3 15.9 20.5 
19754 0 5 31.3 14.8 21.5 
25092 0 5 29.1 12.6 27.5 
25128 0 5 30.2 13.7 27.5 
25095 0 5 29.1 15.9 27.5 
3557 0 5 31.3 18.1 3.5 
3522 0 5 30.2 20.3 3.5 
4398 0 5 29.1 19.2 4.5 
4482 0 5 32.4 20.3 4.5 
5381 0 5 32.4 21.4 5.5 
5320 0 5 30.2 22.5 5.5 
6222 0 5 30.2 20.3 6.5 
6201 0 5 29.1 22.5 6.5 
8001 0 5 29.1 22.5 8.5 
11658 0 5 31.3 19.2 12.5 
11683 0 5 32.4 19.2 12.5 
11682 0 5 32.4 20.3 12.5 
14356 0 5 31.3 17 15.5 
15221 0 5 30.2 21.4 16.5 
16185 0 5 32.4 17 17.5 
16124 0 5 30.2 18.1 17.5 
17981 0 5 32.4 21.4 19.5 
18825 0 5 30.2 17 20.5 
18884 0 5 32.4 18.1 20.5 
18882 0 5 32.4 20.3 20.5 
21523 0 5 30.2 19.2 23.5 
25123 0 5 30.2 19.2 27.5 
25099 0 5 29.1 20.3 27.5 
25181 0 5 32.4 21.4 27.5 
25101 0 5 29.1 22.5 27.5 
26025 0 5 30.2 17 28.5 
26022 0 5 30.2 20.3 28.5 
5315 0 5 30.2 28 5.5 
6275 0 5 32.4 28 6.5 
8077 0 5 32.4 25.8 8.5 
9804 0 5 29.1 25.8 10.5 
13419 0 5 30.2 23.6 14.5 
13479 0 5 32.4 23.6 14.5 
13464 0 5 31.3 25.8 14.5 
16175 0 5 32.4 28 17.5 
17064 0 5 31.3 25.8 18.5 
18863 0 5 31.3 24.7 20.5 
18878 0 5 32.4 24.7 20.5 
19719 0 5 30.2 23.6 21.5 
20618 0 5 30.2 24.7 22.5 
21516 0 5 30.2 26.9 23.5 
24276 0 5 32.4 26.9 26.5 
24206 0 5 29.1 28 26.5 
25165 0 5 31.3 26.9 27.5 
26915 0 5 30.2 28 29.5 
1713 0 5 30.2 30.2 1.5 
1770 0 5 31.3 32.4 1.5 
3568 0 5 31.3 30.2 3.5 
5373 0 5 32.4 30.2 5.5 
6213 0 5 30.2 30.2 6.5 
8013 0 5 30.2 30.2 8.5 
10773 0 5 32.4 30.2 11.5 
11671 0 5 32.4 32.4 12.5 
12508 0 5 29.1 30.2 13.5 
13470 0 5 31.3 32.4 14.5 
14312 0 5 30.2 31.3 15.5 
16108 0 5 29.1 30.2 17.5 
16109 0 5 29.1 31.3 17.5 
17913 0 5 30.2 30.2 19.5 
18873 0 5 32.4 30.2 20.5 
19711 0 5 30.2 32.4 21.5 
24210 0 5 29.1 32.4 26.5 
25114 0 5 30.2 29.1 27.5 
ITEM: TIMESTEP
100000
ITEM: NUMBER OF ATOMS
950
ITEM: BOX BOUNDS pp pp pp
0.0000000000000000e+00 3.3789999999999999e+01
0.0000000000000000e+00 3.3789999999999999e+01
0.0000000000000000e+00 3.3789999999999999e+01
ITEM: ATOMS id mol type x y z 
1974 0 5 1.14358 4.59554 3.3814 
7264 0 5 0.893013 1.22415 4.69651 
11671 0 5 4.5316 0.700924 7.19083 
1085 0 5 2.52026 2.23432 7.18534 
3120 0 5 3.13882 1.92125 8.12819 
8043 0 5 1.96861 3.20695 9.03956 
2939 0 5 3.19943 0.181557 10.4132 
11889 0 5 5.30287 4.02801 11.1185 
4626 0 5 5.04145 1.87323 11.9064 
11913 0 5 4.47185 2.60403 15.0129 
21786 0 5 2.2948 2.84782 14.8953 
10890 0 5 3.41943 1.70229 15.2913 
16291 0 5 2.34991 2.03174 15.6485 
14463 0 5 0.0737267 5.04975 14.4094 
21689 0 5 3.04684 1.68106 21.6714 
15479 0 5 3.78547 0.849713 23.753 
21834 0 5 3.19575 3.15912 23.8198 
18242 0 5 3.42584 4.74738 23.6985 
2015 0 5 1.12291 0.188455 25.072 
18095 0 5 2.31038 0.472597 25.3949 
19987 0 5 5.63094 0.757876 25.6774 
22670 0 5 3.98625 4.43254 25.7067 
19024 0 5 1.77344 4.9404 22.6511 
21905 0 5 4.80898 0.16038 28.9314 
1869 0 5 2.83525 2.61391 33.5819 
26363 0 5 4.49967 1.66902 29.745 
24467 0 5 1.04332 5.56815 32.7521 
5290 0 5 1.63763 9.26525 0.456067 
8370 0 5 4.65315 5.78514 5.61887 
7389 0 5 4.65707 7.77014 4.50471 
6301 0 5 1.61129 6.12318 5.20735 
5391 0 5 0.499131 7.96589 4.96563 
7564 0 5 3.81857 6.02318 7.97626 
7373 0 5 1.88327 6.35242 8.71168 
9068 0 5 3.80127 10.7789 10.9119 
4748 0 5 5.47913 5.88687 7.14766 
10805 0 5 3.49366 6.93844 9.2637 
17168 0 5 3.14819 10.3609 12.8702 
16385 0 5 2.44938 7.05252 14.0662 
14355 0 5 1.17588 9.05136 14.3861 
12714 0 5 2.58907 8.8376 14.2602 
10907 0 5 4.85774 7.01882 15.153 
10072 0 5 4.12483 8.03947 15.176 
19798 0 5 0.696629 9.35596 16.9039 
20947 0 5 2.15442 7.01731 17.7334 
19802 0 5 0.0957919 7.18256 18.0825 
19097 0 5 1.00996 11.1221 21.4698 
21728 0 5 2.84889 7.96849 21.0399 
18053 0 5 5.24303 9.69343 20.8294 
16332 0 5 4.16819 10.6514 21.2015 
22652 0 5 0.516719 7.02946 21.8403 
19689 0 5 1.61128 7.08186 22.4714 
17226 0 5 4.75056 7.45693 23.4493 
17981 0 5 0.984897 11.0287 24.0267 
24530 0 5 0.14689 9.1818 25.0541 
20033 0 5 3.64129 9.54572 25.6134 
22449 0 5 0.404198 11.1717 26.309 
23629 0 5 4.78359 9.44507 30.5955 
24549 0 5 4.69138 10.4099 31.4155 
26356 0 5 3.23964 8.57732 32.5242 
20840 0 5 4.6894 16.4508 2.5219 
9886 0 5 4.64256 15.4496 3.38642 
9793 0 5 1.37269 12.5601 5.03697 
10028 0 5 1.12808 12.9499 6.21185 
8207 0 5 2.69742 16.3831 6.80783 
4636 0 5 3.65062 12.856 6.75741 
1727 0 5 1.67792 15.5067 7.18066 
6288 0 5 2.50338 11.7961 8.40539 
10064 0 5 5.27984 13.9186 7.89279 
9108 0 5 3.46877 13.5409 8.81933 
7216 0 5 2.19162 13.9067 8.78745 
3706 0 5 1.78918 15.8333 8.55884 
7393 0 5 5.51357 12.3948 6.38752 
9110 0 5 1.37854 14.3724 9.70664 
10911 0 5 2.15194 15.1035 10.5498 
16273 0 5 3.24707 15.5409 10.3359 
9071 0 5 1.49786 16.8724 9.19618 
15464 0 5 3.19509 16.172 12.6599 
15375 0 5 0.50974 16.0895 15.9791 
16443 0 5 4.45274 11.9994 15.7041 
18832 0 5 2.40277 15.5009 20.7245 
14444 0 5 4.02412 12.1396 23.2684 
18136 0 5 2.87494 12.1633 23.9174 
16185 0 5 2.08701 15.8124 25.1524 
22703 0 5 5.28173 15.7977 24.5808 
24438 0 5 0.224142 15.6896 26.5811 
23527 0 5 2.81112 12.1412 28.6632 
1096 0 5 5.13182 14.4831 28.7371 
24111 0 5 1.85261 15.8219 28.9103 
1071 0 5 4.19713 15.3172 28.9802 
159 0 5 2.90459 12.4284 29.9162 
25334 0 5 4.43753 14.1194 29.3946 
25314 0 5 1.75548 13.1452 33.0789 
24313 0 5 1.19133 14.8546 33.419 
8953 0 5 2.45362 18.212 2.01041 
5381 0 5 2.76427 19.4173 2.40448 
9112 0 5 0.771109 18.3192 5.99489 
6195 0 5 1.31957 17.6953 6.72033 
11143 0 5 3.75751 18.8331 7.86202 
8086 0 5 3.70938 21.1697 8.21028 
7276 0 5 2.8311 22.1977 9.2253 
5320 0 5 0.754499 21.8576 9.95569 
10874 0 5 2.24241 19.6386 5.60901 
9045 0 5 5.33783 17.258 7.94397 
20718 0 5 2.90591 22.3368 20.8635 
18882 0 5 0.861577 18.8159 20.2756 
15381 0 5 4.89102 17.6688 21.8454 
18884 0 5 2.09473 19.5552 23.9215 
25092 0 5 0.108383 19.122 27.0377 
21523 0 5 2.70144 20.1393 24.8769 
13479 0 5 1.83726 20.9371 25.2818 
19879 0 5 3.96864 20.0574 26.8375 
25279 0 5 3.33738 21.1725 26.9518 
942 0 5 2.4572 17.0167 31.6707 
26204 0 5 2.20737 18.7509 30.1614 
25181 0 5 0.997061 22.2634 33.6595 
106 0 5 0.251994 18.4712 31.8621 
944 0 5 3.52308 20.0791 31.0865 
24372 0 5 0.657119 21.1797 31.5185 
6340 0 5 3.76169 21.1863 31.5019 
13 0 5 3.07858 17.7707 32.5124 
923 0 5 2.94102 20.2539 32.1655 
25421 0 5 5.5742 19.1442 32.2774 
3637 0 5 4.09356 26.776 1.18369 
25200 0 5 0.534258 24.5855 3.73113 
7257 0 5 1.5798 27.9449 7.80417 
10958 0 5 2.63553 26.8553 10.075 
13601 0 5 3.38397 26.924 11.5699 
14356 0 5 2.91629 23.2655 13.3453 
11784 0 5 1.87881 23.9682 13.6825 
12755 0 5 1.68605 26.2993 13.9664 
10182 0 5 2.85095 24.5389 15.0072 
16424 0 5 4.18889 23.3824 17.5729 
16155 0 5 0.380854 27.2431 19.6219 
26364 0 5 5.00414 25.1044 22.9836 
18038 0 5 0.805854 23.3242 23.6137 
154 0 5 3.32297 27.6968 23.9756 
18087 0 5 3.51905 27.0319 24.9201 
23439 0 5 0.709714 25.8579 25.9839 
24317 0 5 3.33804 26.1184 30.1716 
25123 0 5 1.73672 22.9617 31.3696 
1839 0 5 3.31447 24.6887 32.1508 
1684 0 5 0.854001 27.0006 32.1409 
2736 0 5 2.07367 29.4054 1.75592 
4621 0 5 1.10654 31.5807 1.35051 
155 0 5 5.07985 31.3926 1.95678 
2791 0 5 4.47082 31.5609 0.0281529 
6508 0 5 5.23408 28.8576 4.059 
26915 0 5 1.79871 31.0114 4.15002 
18863 0 5 2.79445 29.6396 7.2769 
5582 0 5 3.95411 29.1328 7.21051 
9804 0 5 3.36215 31.5641 7.0128 
15241 0 5 3.25808 31.8861 10.8366 
9117 0 5 5.4511 32.4129 13.3865 
11554 0 5 0.294197 28.1761 15.1702 
10199 0 5 4.39859 33.3256 11.9819 
12783 0 5 3.57493 29.7214 14.337 
13562 0 5 1.74484 32.4497 14.8166 
14543 0 5 3.81083 29.475 18.6496 
19104 0 5 5.09324 29.6106 19.0128 
11969 0 5 3.11906 32.7828 19.623 
20045 0 5 4.21994 32.9937 19.732 
17241 0 5 1.52573 31.8809 20.5178 
13770 0 5 5.34252 31.0681 21.0303 
18839 0 5 0.284384 33.3265 21.1913 
20618 0 5 0.376653 32.9155 22.3057 
13620 0 5 0.0739938 31.8001 22.8856 
17064 0 5 0.769694 31.7844 24.561 
2040 0 5 1.56237 31.8675 27.5003 
21815 0 5 3.39283 30.6472 26.4208 
20752 0 5 1.44676 31.896 25.7769 
23468 0 5 3.43857 33.2521 26.0568 
82 0 5 4.39459 28.6795 31.455 
4440 0 5 1.72024 29.5263 31.4468 
3001 0 5 2.82336 32.77 31.4432 
2702 0 5 3.3357 32.6361 33.1233 
23400 0 5 1.51478 31.6479 32.7122 
3992 0 5 9.21511 0.276238 0.54428 
2187 0 5 7.18892 2.3196 0.558618 
1983 0 5 8.56927 1.98063 5.46614 
26435 0 5 10.0729 1.98532 1.52305 
1074 0 5 8.18171 3.63427 3.31942 
22706 0 5 8.44211 1.47952 0.227515 
7555 0 5 10.9554 0.409588 4.11948 
24482 0 5 7.40421 4.25573 4.25757 
25322 0 5 10.9984 4.42388 6.39381 
7414 0 5 8.6643 0.984579 9.50597 
12895 0 5 10.0455 3.76883 9.62072 