ITEM: TIMESTEP
7000000
ITEM: NUMBER OF ATOMS
950
ITEM: BOX BOUNDS pp pp pp
6.1947513800704712e-01 3.3170524861999581e+01
6.1947513800704712e-01 3.3170524861999581e+01
6.1947513800704712e-01 3.3170524861999581e+01
ITEM: ATOMS id mol type x y z 
26798 0 5 1.65973 1.80576 0.658166 
14355 0 5 3.81494 0.642228 3.30534 
23968 0 5 3.03791 4.1119 4.16615 
16259 0 5 4.36355 4.64964 3.4283 
1924 0 5 0.639087 2.58624 4.99402 
22226 0 5 3.68486 4.94193 5.751 
22198 0 5 4.85905 4.62542 7.82347 
5078 0 5 4.72232 1.33973 10.4247 
26432 0 5 4.69419 2.31336 13.0672 
10242 0 5 4.57247 3.28062 13.581 
18609 0 5 4.90398 5.05698 13.9613 
7862 0 5 2.52925 4.02784 18.1982 
20951 0 5 4.88725 5.05316 20.121 
14052 0 5 6.01762 1.6292 23.248 
23542 0 5 4.02794 4.02621 23.9607 
1713 0 5 1.23862 3.42787 25.4834 
21934 0 5 3.09956 3.80244 24.6056 
24960 0 5 3.77066 3.80518 27.5663 
439 0 5 1.40944 1.17566 27.8312 
26530 0 5 2.69176 0.776004 27.7834 
10118 0 5 4.67843 5.98871 28.1523 
8583 0 5 5.36385 3.25756 30.632 
24775 0 5 5.92029 4.81662 30.6113 
23850 0 5 2.71811 1.55901 32.1401 
1684 0 5 1.60857 11.0275 2.6019 
660 0 5 5.6252 10.3428 4.03743 
14312 0 5 3.91826 8.52224 5.88094 
18053 0 5 1.78067 10.2076 5.20546 
11671 0 5 2.22089 11.0508 5.67797 
25838 0 5 2.76769 7.44694 7.52023 
15708 0 5 3.70937 6.06415 7.31025 
4761 0 5 5.06361 6.49255 7.0683 
14140 0 5 4.45664 6.42065 8.06066 
268 0 5 4.31131 8.34621 8.56266 
23561 0 5 1.54025 7.75882 11.0343 
10027 0 5 3.2068 6.4995 10.7798 
24952 0 5 2.75773 7.93513 10.6328 
20300 0 5 5.93794 8.15953 9.88516 
23963 0 5 1.81162 6.45172 11.7343 
4078 0 5 3.02238 10.2418 11.6505 
4146 0 5 1.93539 6.48861 13.5187 
7264 0 5 5.77859 9.00491 14.7201 
18082 0 5 1.11829 8.34366 16.6635 
19120 0 5 1.71607 7.17991 17.6678 
6926 0 5 2.00582 6.77453 22.1673 
13620 0 5 2.30066 10.4327 20.7456 
3637 0 5 1.5029 6.96076 23.482 
25403 0 5 3.90623 9.56816 23.3657 
25322 0 5 5.50675 10.7559 23.7262 
16131 0 5 2.15711 7.05104 27.0032 
6541 0 5 5.91402 6.44241 31.2551 
19353 0 5 2.44147 9.89128 29.7557 
13302 0 5 3.11087 10.8871 31.2234 
25872 0 5 2.53683 13.8255 1.4644 
20108 0 5 3.98034 14.0631 2.13908 
19470 0 5 2.81985 14.4071 2.23729 
11487 0 5 1.07211 12.6335 3.73206 
18906 0 5 4.98611 16.7006 3.73475 
6275 0 5 1.69373 13.1489 4.99686 
24829 0 5 3.74546 14.8062 5.15544 
15684 0 5 3.30533 14.8104 7.10612 
22310 0 5 3.66477 13.0681 9.32486 
1096 0 5 4.8288 14.3297 11.2079 
17539 0 5 1.23272 16.7621 10.6435 
21867 0 5 0.932321 16.425 12.1285 
18878 0 5 2.94778 15.9809 12.9841 
22703 0 5 4.00539 14.233 13.2834 
17170 0 5 4.97403 14.7013 13.5648 
23267 0 5 2.86987 13.1897 17.7246 
4557 0 5 2.30888 11.5127 20.372 
23677 0 5 1.22963 14.2037 19.1353 
4801 0 5 5.43635 14.446 19.9404 
24827 0 5 2.1152 13.6021 20.5759 
7373 0 5 3.50908 14.896 21.9485 
7813 0 5 5.75885 16.4822 22.0483 
16059 0 5 1.45939 15.4807 23.6645 
17622 0 5 2.83446 15.6515 24.327 
23802 0 5 3.48145 13.6662 26.0885 
24206 0 5 4.7214 14.3722 27.5272 
24647 0 5 1.75693 16.5827 27.1058 
5547 0 5 0.641978 13.4186 31.2384 
16884 0 5 3.04963 14.1991 33.1195 
8158 0 5 5.88838 13.4462 31.7434 
11554 0 5 2.46326 15.9833 32.8961 
26835 0 5 3.33535 18.4009 1.08054 
752 0 5 4.68303 17.0617 0.690903 
3631 0 5 0.698606 22.0155 1.07606 
14712 0 5 5.3067 22.0622 1.26965 
26794 0 5 3.62819 18.717 3.84449 
21177 0 5 1.31371 21.2951 2.79473 
9417 0 5 1.96813 17.4244 7.00698 
20752 0 5 3.95681 17.6136 7.41657 
12300 0 5 3.14838 20.8405 7.26506 
9267 0 5 3.26717 16.9257 8.76391 
5087 0 5 2.72705 17.3319 11.6649 
16291 0 5 1.75959 20.4858 12.874 
23535 0 5 5.04305 18.0564 13.7723 
21242 0 5 1.55325 19.6345 13.8472 
13965 0 5 4.21702 22.1461 16.4341 
19104 0 5 1.85493 17.4111 18.4791 
20128 0 5 3.08097 22.0174 20.1908 
1071 0 5 2.58117 18.257 22.2067 
3887 0 5 1.57428 20.7434 21.5749 
4752 0 5 1.90281 17.3617 23.9467 
20406 0 5 1.66895 20.2708 23.4105 
9242 0 5 4.78532 22.1486 23.9563 
20373 0 5 2.3245 17.6266 24.8649 
26878 0 5 5.43077 19.0452 27.3694 
15307 0 5 5.88102 17.3018 30.9899 
5734 0 5 0.805141 23.0166 6.55329 
25663 0 5 2.23348 22.7174 7.39979 
12917 0 5 4.03672 24.9178 6.23345 
11683 0 5 1.95972 26.3462 7.46989 
21356 0 5 5.29998 25.4982 7.93434 
21994 0 5 0.685399 26.6183 8.47421 
5018 0 5 3.00132 23.4962 10.3715 
927 0 5 4.63517 22.9963 10.3424 
658 0 5 5.19187 26.6454 10.8463 
17792 0 5 4.71789 25.9462 9.97997 
781 0 5 5.42242 22.7165 12.7074 
25642 0 5 4.54367 25.1308 13.0479 
25982 0 5 2.9623 26.679 16.2766 
3706 0 5 5.24121 24.0135 17.5472 
24606 0 5 4.61512 23.7318 18.4063 
26528 0 5 3.74431 24.8262 21.1159 
15295 0 5 4.55681 26.0899 22.4239 
10858 0 5 1.94096 22.6807 25.5059 
18839 0 5 5.08344 26.7075 25.898 
9063 0 5 4.31334 24.7502 30.0453 
4851 0 5 1.79004 27.0811 31.5421 
25101 0 5 3.30186 27.9452 0.885947 
21689 0 5 4.99723 28.7919 2.73748 
4147 0 5 5.56167 27.999 3.3788 
22153 0 5 2.0384 30.9533 2.46824 
21239 0 5 3.93236 30.0952 5.66526 
9108 0 5 5.48845 29.6873 8.82384 
16762 0 5 4.73457 27.9718 10.7088 
18479 0 5 2.40346 33.0724 12.9147 
7273 0 5 3.3121 31.4349 11.6861 
458 0 5 1.66236 28.2907 13.3499 
23400 0 5 3.81099 28.397 16.477 
26915 0 5 4.7071 31.397 18.3807 
18884 0 5 1.65866 27.8683 19.3947 
9898 0 5 0.822791 29.2851 19.5838 
10580 0 5 3.61539 28.4382 19.3826 
12428 0 5 1.62554 31.4088 19.5052 
1379 0 5 1.46099 28.561 22.0552 
17568 0 5 3.67061 29.7269 23.588 
15955 0 5 4.02915 31.2358 23.3803 
25852 0 5 2.28352 31.5078 22.9581 
8835 0 5 0.947076 28.3065 24.7433 
21026 0 5 0.668004 31.0863 25.7038 
17784 0 5 4.12469 32.1658 27.3322 
17499 0 5 2.9913 29.6246 28.8915 
23483 0 5 3.99521 29.5708 29.6094 
155 0 5 9.74103 4.80001 0.667696 
6691 0 5 8.98983 2.26108 3.30754 
6049 0 5 7.87833 1.92736 7.33333 
26022 0 5 7.77926 2.99665 7.46529 
14107 0 5 9.32804 0.651882 7.87842 
25338 0 5 10.342 4.55477 9.00907 
941 0 5 7.43609 1.39524 10.1891 
18237 0 5 6.95872 5.4594 9.75742 
6601 0 5 11.3837 4.87356 10.264 
24755 0 5 8.08329 4.53109 16.4096 
13376 0 5 7.29629 1.90488 17.1509 
2267 0 5 6.86445 4.86591 17.3165 
25165 0 5 7.8985 5.30186 17.5049 
247 0 5 10.4244 2.35053 20.0833 
23733 0 5 8.08298 5.08259 19.1453 
26435 0 5 7.38926 3.28162 21.4058 
21786 0 5 8.61163 5.32547 21.161 
19794 0 5 9.77174 1.58031 22.3677 
14880 0 5 8.96736 4.14673 22.4602 
5150 0 5 6.3964 3.57272 25.6627 
18882 0 5 10.6808 4.08812 25.0979 
16152 0 5 10.5543 2.25892 29.0358 
5290 0 5 7.05961 3.89218 29.1225 
15894 0 5 10.3536 5.50991 29.1144 
681 0 5 7.09558 8.74497 1.29752 
12939 0 5 8.50118 7.43222 5.22689 
13779 0 5 11.3911 8.79827 7.05463 
9686 0 5 6.39147 6.25673 11.2184 
6832 0 5 6.81747 6.18612 12.3164 
5315 0 5 6.33097 9.6919 12.705 
4626 0 5 8.99249 9.39515 16.5632 
8589 0 5 11.1069 8.0081 16.4601 
5041 0 5 6.63544 11.0727 16.219 
117 0 5 6.95788 7.10292 17.999 
12046 0 5 10.2408 10.6361 17.8371 
26632 0 5 9.39812 8.84569 20.1261 
18141 0 5 7.83256 7.18353 23.5926 
1868 0 5 7.21039 7.41843 22.5759 
18873 0 5 7.25716 11.112 24.726 
25789 0 5 6.53485 8.52896 27.5128 
26559 0 5 6.69239 11.1555 29.4008 
26746 0 5 8.17453 7.81901 31.6688 
1870 0 5 10.1243 6.76019 32.9721 
26745 0 5 7.38966 11.3757 32.5992 
16273 0 5 8.65673 15.8834 4.89143 
19524 0 5 6.50545 13.8585 6.07202 
1974 0 5 9.82729 13.3993 6.28474 
2892 0 5 7.86532 14.3463 7.97243 
6799 0 5 7.5697 14.7617 10.5729 
1814 0 5 9.43783 15.4449 9.7537 
18197 0 5 10.4085 11.927 14.6893 
82 0 5 7.07689 15.898 13.5744 
11682 0 5 9.57478 16.0959 13.3424 
17614 0 5 10.0697 11.7525 17.4784 
3929 0 5 10.5418 15.08 17.9973 
12598 0 5 10.1736 11.6839 20.6853 
19226 0 5 9.17314 12.1167 22.3446 
5254 0 5 6.86372 13.6277 23.4284 
3855 0 5 7.15886 14.7423 26.5043 
16943 0 5 8.85259 13.4439 26.1721 
18231 0 5 10.3293 15.8314 27.8958 
10211 0 5 6.31404 14.3484 31.3512 
16721 0 5 6.87006 14.2548 29.9589 
5897 0 5 6.17938 18.0963 1.54427 
23638 0 5 9.03932 17.0506 1.43418 
25421 0 5 8.70987 19.1535 1.63274 
24111 0 5 6.58002 22.0534 1.40274 
24334 0 5 7.8538 21.9962 1.87867 
6848 0 5 10.0439 19.1709 2.55525 
17981 0 5 6.29264 21.782 4.30542 
10160 0 5 7.00929 16.9084 6.59225 
5320 0 5 9.10973 18.0053 7.17742 
4885 0 5 10.85 19.2702 6.18425 
18038 0 5 7.94268 20.5691 7.68956 
8949 0 5 7.15497 17.6836 7.8795 
18825 0 5 10.7465 20.4907 8.2816 
25095 0 5 7.9249 21.9176 11.2932 
3856 0 5 8.43921 20.0335 17.1612 
20111 0 5 9.15068 20.5976 17.5423 
11348 0 5 6.63933 19.8719 20.0271 
7389 0 5 11.0652 17.6954 21.7218 
20532 0 5 8.61318 18.7989 23.871 
3557 0 5 7.67559 19.6988 24.6783 
13562 0 5 10.8219 22.0105 26.2039 
16443 0 5 7.07637 18.1985 28.7663 
26637 0 5 10.4968 16.9864 29.2422 
21620 0 5 7.3812 20.6361 28.0051 
11962 0 5 8.22257 21.1735 28.1888 
5408 0 5 6.59087 22.1164 30.358 
13060 0 5 9.38528 21.4366 32.9847 
17279 0 5 9.46685 21.9451 31.786 
20057 0 5 8.72485 20.7082 32.9503 
6201 0 5 8.1459 23.3789 3.27685 
18242 0 5 10.3823 24.9642 3.27313 
7754 0 5 7.2594 24.012 5.10873 
1983 0 5 9.05733 25.3854 5.17964 
14554 0 5 10.0745 25.6944 5.24951 
15685 0 5 11.0619 27.5875 6.45245 
13816 0 5 7.79021 23.8565 10.3304 
12087 0 5 7.35175 26.1581 10.5437 
3522 0 5 9.88417 25.4396 12.0758 
23191 0 5 6.11536 27.6803 13.1871 
21200 0 5 8.25539 25.3908 14.2205 
9071 0 5 6.65281 26.0084 13.5862 
8164 0 5 6.05736 23.2532 17.2471 
23732 0 5 6.26163 24.6243 18.3967 
10129 0 5 11.0225 25.6257 18.8741 
16124 0 5 10.7825 25.3537 19.9138 
5865 0 5 8.15858 23.6735 20.8783 
14543 0 5 10.5379 22.6641 24.0245 
9156 0 5 10.7122 22.654 25.1691 
18633 0 5 8.16271 25.7763 24.4876 
13082 0 5 10.1267 23.0629 26.3672 
17817 0 5 10.6822 23.8156 30.6126 
8587 0 5 10.5066 25.6103 29.6197 
21888 0 5 6.38406 26.8164 30.7567 
12508 0 5 11.2765 27.0696 31.2378 
12393 0 5 9.70025 27.5586 32.9679 
17235 0 5 10.8409 32.321 3.90012 
4440 0 5 8.21858 31.1714 6.0171 
1433 0 5 9.66527 32.6205 5.1079 
14867 0 5 9.55597 29.9239 7.53834 
16003 0 5 9.16499 28.3252 9.65083 
19163 0 5 10.3536 28.5823 8.86033 
10811 0 5 6.73144 32.6046 8.69863 
3268 0 5 9.74895 28.3491 12.4895 
9668 0 5 7.82273 29.9778 11.5557 
13921 0 5 9.35432 31.6765 13.4162 
6957 0 5 8.38397 31.179 15.6248 
21123 0 5 10.2935 30.4524 15.59 
2187 0 5 9.00244 32.1421 15.9976 
6022 0 5 9.95708 32.9154 16.3098 
18391 0 5 10.8443 28.3116 17.3539 
16728 0 5 10.3707 32.5294 18.0829 
22848 0 5 8.4724 27.8049 19.5323 
19147 0 5 11.437 32.3722 18.735 
13718 0 5 8.75062 27.8031 20.7441 
3267 0 5 10.3798 29.1063 23.9349 
10631 0 5 6.15561 28.1553 24.5922 
6094 0 5 10.8938 29.1908 25.814 
16155 0 5 9.95147 32.6118 27.8074 
21872 0 5 6.34147 27.7629 30.4477 
22021 0 5 7.67099 29.5194 31.163 
416 0 5 11.4393 32.0422 30.5222 
13419 0 5 8.68318 29.0707 31.4865 
13464 0 5 9.94305 28.4895 32.2656 
12714 0 5 7.72111 33.1404 32.9781 
26809 0 5 10.9174 32.907 32.3762 
4808 0 5 9.91652 33.1613 32.61 
21228 0 5 16.8846 2.67654 0.932779 
1437 0 5 13.9797 1.76774 3.17939 
25314 0 5 13.1282 2.02232 4.3718 
19982 0 5 13.1907 3.14091 4.72677 
21024 0 5 15.321 4.98851 5.8201 
7335 0 5 16.6383 4.4861 5.86128 
9068 0 5 15.0936 4.03929 6.28417 
19463 0 5 14.4797 1.92584 12.771 
3002 0 5 14.9022 4.03307 12.1034 
2980 0 5 16.8903 4.99452 11.9309 
7667 0 5 14.8909 5.66466 14.951 
20330 0 5 12.7737 3.76994 15.998 
21471 0 5 13.46 3.38738 16.8257 
10174 0 5 12.3782 4.84009 15.9463 
16019 0 5 16.6739 1.335 18.2569 
6706 0 5 16.46 0.631606 17.4439 
128 0 5 13.008 2.55358 19.6011 
19472 0 5 14.4014 2.5109 19.0522 
725 0 5 14.2976 2.86975 24.0643 
4639 0 5 14.8561 5.37584 22.9367 
1302 0 5 15.4275 6.03705 26.7599 
26472 0 5 15.911 3.6213 28.1738 
25071 0 5 14.1427 4.62659 28.8458 
10694 0 5 13.2283 2.35451 30.5559 
14327 0 5 12.0817 4.75325 30.7461 
12325 0 5 16.8074 0.798848 32.718 
12419 0 5 13.7146 2.71969 32.5353 
4793 0 5 12.8872 5.8069 31.9024 
6746 0 5 13.1917 10.4185 2.06604 
25039 0 5 13.2523 10.7975 2.94805 
20441 0 5 13.0342 7.98404 7.10175 
237 0 5 11.7771 7.78842 9.61874 
10455 0 5 11.8678 8.25817 8.70793 
6840 0 5 13.7015 9.48232 9.1911 
23439 0 5 16.2414 7.69648 10.9566 
20479 0 5 11.8863 7.50896 14.9244 
14356 0 5 15.3388 7.68031 13.3713 
25060 0 5 16.8399 8.48541 13.6824 
15823 0 5 14.7255 10.7767 14.5755 
20125 0 5 13.1838 8.72298 15.2022 
18863 0 5 12.8364 8.81651 17.4826 
20417 0 5 12.7361 8.28326 19.3028 
13093 0 5 15.6791 11.064 21.2508 
21054 0 5 15.0846 8.63071 23.5902 
9161 0 5 13.3897 6.66667 27.0325 
8013 0 5 15.535 8.94675 26.1657 
4326 0 5 13.4067 7.25484 28.6788 
10798 0 5 15.7137 8.21893 29.5212 
22279 0 5 12.3855 6.7469 30.14 
8077 0 5 14.4928 9.27131 30.8561 
17520 0 5 16.7954 12.6632 3.75758 
6340 0 5 12.3373 13.5158 8.53299 
23477 0 5 11.7244 16.448 9.5955 
17409 0 5 16.7885 15.3018 12.9135 
6602 0 5 13.0279 14.3504 14.6016 
23481 0 5 16.3474 16.6381 14.2967 
3172 0 5 15.3217 12.8267 17.4365 
26356 0 5 12.7721 13.996 20.8789 
12483 0 5 12.0539 14.4535 22.7296 
14987 0 5 14.654 16.1055 23.709 
20900 0 5 16.8184 11.8029 25.0155 
159 0 5 11.5076 14.852 26.4783 
23983 0 5 14.5274 14.0764 27.6435 
10182 0 5 12.7195 11.9268 29.4019 
20070 0 5 11.6767 12.1706 29.8396 
23974 0 5 15.4196 13.0977 32.9947 
4858 0 5 12.5436 15.0035 33.0761 
20789 0 5 12.8301 18.0281 1.2249 
6535 0 5 15.1086 17.4424 7.56728 
6288 0 5 11.593 21.9719 11.2854 
7909 0 5 14.7781 20.2809 16.8637 
22718 0 5 16.826 19.4073 16.2788 
9045 0 5 14.7776 17.5252 18.8331 
2040 0 5 14.4548 18.4472 19.4413 
26363 0 5 16.4616 18.0312 21.9779 
14146 0 5 11.9789 19.5512 21.1045 
5373 0 5 14.0905 19.3859 20.571 
12703 0 5 16.8912 20.7617 20.7469 
19934 0 5 15.2499 19.9469 23.3664 
9296 0 5 16.3259 17.0159 27.6712 
17913 0 5 16.7895 19.7537 27.2388 
21844 0 5 14.4102 22.2456 27.0355 
8441 0 5 13.5727 19.035 28.6976 
19498 0 5 12.1709 21.6241 31.3063 
1074 0 5 11.9821 17.6278 32.993 
21784 0 5 12.9964 18.9555 32.1656 
2999 0 5 14.7403 19.9583 32.8753 
4621 0 5 12.6385 22.8093 2.12707 
16193 0 5 13.7479 26.1856 1.24795 
21834 0 5 15.5704 23.7018 4.06317 
7947 0 5 12.1616 26.9325 3.5605 
14353 0 5 13.709 26.0037 3.99799 
17518 0 5 12.4233 23.1477 4.542 
15221 0 5 13.8645 22.7266 4.67303 
1853 0 5 14.0619 25.0758 8.61792 
23010 0 5 13.2103 27.0806 15.7372 
10509 0 5 12.8015 27.1531 16.8495 
7857 0 5 12.8611 22.7625 17.9479 
22204 0 5 14.835 23.8668 18.7479 
10555 0 5 12.2999 23.9662 21.8439 
9543 0 5 15.0751 25.2899 21.7642 
10750 0 5 12.6514 22.4022 23.286 
8953 0 5 15.0799 24.3963 23.6966 
4337 0 5 15.1538 25.0538 22.8991 
746 0 5 14.7408 23.5168 27.6689 
26805 0 5 13.6789 23.179 26.937 
2520 0 5 16.5083 27.0054 27.7231 
19690 0 5 12.3396 25.0269 28.8498 
17500 0 5 14.669 24.9239 28.9317 
921 0 5 11.5412 23.3216 31.3595 
6953 0 5 16.2112 24.981 30.2066 
14552 0 5 12.9414 26.3818 32.8622 
10506 0 5 12.9023 29.3495 2.11814 
7795 0 5 13.2536 30.7024 0.636038 
26406 0 5 14.2652 31.0197 2.03912 
15889 0 5 13.9466 32.5012 1.81613 
8200 0 5 16.5725 31.7553 1.00228 
17226 0 5 12.2915 27.9584 2.96977 
3175 0 5 16.5464 29.3641 3.25056 
11784 0 5 13.6312 30.3807 4.13567 
20618 0 5 12.0905 32.3719 3.0443 
25200 0 5 14.6152 29.2853 5.99968 
175 0 5 12.6079 30.5562 4.3042 
6147 0 5 14.2475 30.9689 4.73346 
8399 0 5 12.1203 33.0591 5.26918 
3989 0 5 11.682 32.5336 7.1843 
9886 0 5 14.9682 31.4532 7.78922 
10273 0 5 13.0456 31.7467 10.2845 
5249 0 5 11.9451 31.1396 11.8298 
21938 0 5 12.3278 32.0873 12.0401 
10164 0 5 16.5231 32.3326 13.059 
10260 0 5 16.7912 29.2951 15.5822 
9771 0 5 13.8121 30.723 16.7478 
24437 0 5 13.5305 28.4824 17.661 
14713 0 5 12.5578 30.9877 17.7832 
8043 0 5 15.4893 29.6228 19.2864 
6963 0 5 13.7012 29.0611 21.6085 
18335 0 5 15.8047 29.1939 21.2965 
20840 0 5 15.8735 31.3771 21.2128 
13762 0 5 13.0204 30.8085 26.4166 
15599 0 5 11.9784 28.0941 28.0852 
8842 0 5 14.2188 30.3404 31.3081 
7975 0 5 12.317 28.4095 31.8951 
14463 0 5 13.3218 29.918 32.3132 
782 0 5 20.9432 5.81308 3.08407 
25920 0 5 20.9311 0.984845 6.5578 
2702 0 5 20.96 5.81013 6.91878 
10805 0 5 21.9354 1.30193 9.46881 
24438 0 5 21.5476 1.62945 8.54665 
25728 0 5 17.9427 3.67264 8.63778 
1276 0 5 19.0998 2.26844 14.8157 
17723 0 5 19.5863 0.637823 16.4121 
106 0 5 21.5723 3.31562 16.5966 
26595 0 5 20.0869 3.0478 18.1582 
18711 0 5 17.039 5.91952 18.1826 
2770 0 5 17.9078 4.68694 20.3095 
18493 0 5 21.1186 4.10824 21.5 
10205 0 5 20.8622 5.49576 20.9387 
6769 0 5 21.3481 1.35384 23.6271 
3171 0 5 17.6422 2.48673 25.7091 
1387 0 5 19.8595 3.19818 25.0796 
17342 0 5 16.9086 4.46656 24.2334 
15068 0 5 18.2983 1.01666 30.5142 
14050 0 5 19.4784 7.45399 3.77648 
1297 0 5 19.3876 8.11796 2.85395 
8377 0 5 18.7058 7.87649 5.1438 
1332 0 5 19.4646 8.53303 4.32733 
15241 0 5 17.7673 10.4427 4.73152 
14110 0 5 19.4044 7.53528 7.34565 
3483 0 5 20.2831 6.8762 6.99654 
3568 0 5 19.0975 6.34093 6.25258 
778 0 5 21.6909 9.2075 7.44106 
18404 0 5 17.8099 9.11544 9.20185 
21275 0 5 18.9929 7.52753 10.8013 
25114 0 5 18.168 8.03898 10.2121 
9937 0 5 20.0111 10.2094 11.4208 
13426 0 5 20.671 11.1875 12.958 
13038 0 5 21.2376 8.6381 13.3613 
18295 0 5 19.4611 8.87816 15.713 
6301 0 5 21.1892 8.36877 16.5359 
7960 0 5 20.8618 10.5936 16.1671 
18933 0 5 21.2349 6.09568 18.6881 
18246 0 5 20.4293 9.9006 23.0437 
12081 0 5 19.2606 10.3574 22.6804 
22579 0 5 20.1257 7.51102 25.796 
12102 0 5 20.4096 6.48151 25.2632 
9430 0 5 17.3142 10.384 27.4576 
1770 0 5 20.5975 9.88953 26.8769 
4437 0 5 20.1293 8.75948 27.8426 
2791 0 5 18.7041 6.53692 30.889 
19987 0 5 20.5793 6.89102 30.0285 
3195 0 5 21.069 8.8381 29.8945 
12757 0 5 17.7125 10.5505 30.4671 
11913 0 5 21.503 10.6448 31.9674 
10372 0 5 21.1904 16.2745 3.16397 
14267 0 5 19.4749 16.4309 5.19389 
11982 0 5 18.9511 16.6205 6.9522 
10064 0 5 18.7577 11.781 10.3711 
23234 0 5 17.584 13.8017 11.3631 
21034 0 5 21.372 12.5288 11.8738 
22853 0 5 21.0632 12.284 13.0186 
16896 0 5 17.5608 16.8342 11.5049 
23468 0 5 20.8904 15.985 12.5435 
25092 0 5 17.2504 15.1272 14.2311 
16385 0 5 18.8655 15.8281 13.3907 
26314 0 5 20.5633 15.2167 13.7394 
25334 0 5 19.5565 12.9018 17.6943 
7236 0 5 21.4766 13.679 17.9672 
7257 0 5 21.9107 11.7908 21.29 
20589 0 5 18.9915 15.5498 21.2175 
1608 0 5 18.7493 14.5654 22.8407 
24925 0 5 21.7741 14.8755 23.7321 
3974 0 5 18.871 12.9477 25.6565 
12763 0 5 21.2721 12.7594 25.6498 
2438 0 5 19.6054 16.7205 24.2334 
9632 0 5 21.3685 15.5092 25.5175 
12416 0 5 17.6863 15.304 26.443 
2397 0 5 19.6893 12.1685 29.5502 
10911 0 5 22.2849 12.9707 28.5514 
12296 0 5 19.2196 15.4314 29.1642 
4377 0 5 21.034 16.6958 29.3912 
3934 0 5 19.33 14.5836 30.8057 
10547 0 5 19.7647 16.652 30.1305 
23985 0 5 19.8762 16.3108 32.243 
8460 0 5 17.7114 17.5355 1.512 
10958 0 5 16.9175 19.6263 2.11718 
26540 0 5 18.3792 21.8098 1.21165 
4636 0 5 20.2382 19.4415 2.98244 
11658 0 5 19.0455 19.8641 2.85547 
18136 0 5 21.789 19.9629 3.25801 
7697 0 5 18.5242 20.7394 3.89381 
9254 0 5 21.3674 21.8231 3.47801 
19798 0 5 18.0079 17.2504 7.08614 
1486 0 5 17.6025 19.2998 6.15317 
356 0 5 22.0181 20.1829 7.31376 
5386 0 5 21.5841 20.7732 6.40601 
7414 0 5 20.6739 16.975 9.10834 
13601 0 5 17.98 17.9048 9.77619 
1828 0 5 17.4789 18.2216 12.3254 
16332 0 5 17.2942 20.2314 12.8118 
15375 0 5 20.0045 19.6265 12.9909 
9117 0 5 21.0991 20.1316 11.764 
1836 0 5 19.3427 20.6019 12.8909 
1385 0 5 20.8301 17.9872 13.6668 
12949 0 5 20.6426 19.4982 15.8854 
25870 0 5 19.3848 21.6158 16.1771 
7190 0 5 21.5012 18.7029 18.0486 
18453 0 5 17.163 19.9103 18.4319 
15697 0 5 18.1752 17.6642 19.8013 
20193 0 5 20.1351 18.8763 19.0032 
10519 0 5 19.2709 18.2533 21.8092 
26260 0 5 19.4772 21.3267 21.5156 
942 0 5 20.9121 20.107 22.4582 
15479 0 5 21.3485 20.5495 23.2723 
25015 0 5 19.4935 17.417 25.0993 
26495 0 5 22.1224 19.9929 29.143 
4125 0 5 21.1122 21.0857 28.6065 
14711 0 5 21.8269 17.5633 31.2881 
12913 0 5 17.6381 18.2652 32.3165 
10264 0 5 21.5203 23.2988 0.975211 
20852 0 5 18.4563 25.1187 1.16814 
766 0 5 19.3785 25.3097 5.61269 
6606 0 5 22.2718 24.2164 4.58943 
11143 0 5 17.915 27.4462 4.77902 
24372 0 5 21.5141 26.2662 5.07436 
16719 0 5 17.1595 25.2654 7.75547 
9717 0 5 20.5737 24.2433 8.1119 
2353 0 5 18.6195 25.1632 10.928 
24793 0 5 19.4187 22.347 12.9577 
935 0 5 17.4563 27.4758 14.9171 
208 0 5 18.2159 24.6144 16.2469 
22933 0 5 17.4189 25.4057 16.125 
11471 0 5 18.1105 27.2498 16.7235 
4157 0 5 21.339 26.467 16.6109 
3975 0 5 22.005 24.7401 17.2463 
10367 0 5 17.208 26.5426 17.2279 
21815 0 5 18.3543 25.3098 22.0789 
14531 0 5 20.4013 26.6386 20.787 
11550 0 5 19.3234 26.6628 21.1595 
22171 0 5 18.1776 24.7103 23.6733 
20492 0 5 17.2338 27.2903 22.6542 
13479 0 5 20.934 23.094 24.9217 
10907 0 5 17.1754 25.072 25.2796 
6508 0 5 17.9629 22.4203 28.6925 
18245 0 5 18.3193 25.8907 28.3963 
14444 0 5 17.7851 22.8478 30.8115 
7276 0 5 17.6287 27.4219 30.8579 
14190 0 5 17.034 32.7874 1.43506 
11238 0 5 19.2872 32.2264 1.90945 
21905 0 5 19.8142 28.7389 2.60175 
17423 0 5 22.2399 28.7651 3.57766 
18634 0 5 18.5251 29.5016 5.45852 
1727 0 5 18.7144 28.9606 4.33176 
10400 0 5 18.9965 30.382 5.96019 
15464 0 5 18.405 30.9978 6.57199 
16258 0 5 19.302 28.3485 9.08582 
21248 0 5 21.019 27.9199 9.35339 
3992 0 5 17.8151 29.6519 8.83779 
20452 0 5 19.3425 29.4026 12.1605 
11420 0 5 22.0937 30.5306 12.7748 
7216 0 5 18.1117 28.3554 14.9859 
18641 0 5 21.2962 27.7926 13.8018 
8207 0 5 20.2177 32.051 14.2896 
7990 0 5 21.1504 32.6058 18.3023 
20538 0 5 19.1432 27.7563 19.2032 
11303 0 5 18.2683 29.1064 21.2991 
11240 0 5 17.4824 29.8945 21.0277 
5032 0 5 19.5 30.885 21.9174 
16723 0 5 19.4319 29.6759 23.2687 
22385 0 5 19.5032 29.7743 24.3987 
10373 0 5 21.4262 30.4613 25.0523 
20947 0 5 21.9403 28.5957 27.3635 
19985 0 5 21.0957 30.0487 27.3696 
20308 0 5 19.223 27.9238 29.1284 
5210 0 5 18.292 29.6233 29.2022 
23343 0 5 19.0943 30.9249 28.6727 
24276 0 5 19.6133 29.7141 30.5378 
24933 0 5 17.0788 31.4651 30.6525 
4126 0 5 17.1556 32.4126 32.9832 
9531 0 5 25.3157 5.12555 1.44902 
23721 0 5 25.1203 1.07431 3.56485 
16069 0 5 25.001 0.843857 5.08496 
6023 0 5 23.2024 1.46559 8.65038 
12922 0 5 23.6914 3.90985 12.9534 
9110 0 5 24.6985 3.26581 12.9648 
19629 0 5 22.8506 3.88702 13.6408 
154 0 5 23.4851 2.17609 16.0663 
25476 0 5 23.6209 1.79944 15.0984 
15615 0 5 26.4901 2.61592 15.7368 
20447 0 5 27.6545 3.93469 17.7737 
9442 0 5 26.944 0.937004 18.8289 
6195 0 5 27.7118 1.68296 19.1464 
7599 0 5 25.5727 3.20076 18.9926 
26155 0 5 26.8554 3.90413 19.1708 
10874 0 5 24.4725 1.96907 21.9007 
5658 0 5 23.3521 4.50938 21.7193 
11760 0 5 27.009 4.69411 21.3949 
397 0 5 26.6734 0.984544 23.8082 
24649 0 5 25.8203 4.96729 23.3965 
24822 0 5 25.6717 4.14846 24.32 
16746 0 5 26.9071 0.851707 29.0719 
14100 0 5 26.4326 5.74306 28.8272 
13106 0 5 27.4651 4.44209 28.2079 
1151 0 5 24.7824 0.840309 31.2571 
21432 0 5 27.0147 4.97084 30.4812 
22706 0 5 22.4989 0.675837 32.6114 
24121 0 5 23.776 1.50781 31.4907 
1869 0 5 27.6186 5.81165 31.3871 
24116 0 5 25.6713 8.14487 1.3195 
9644 0 5 27.0025 9.93364 5.36393 
19445 0 5 27.6805 10.3915 7.83038 
8107 0 5 27.6742 9.3009 8.28107 
7393 0 5 27.315 10.8847 8.8779 
26625 0 5 23.345 9.78556 10.6016 
22662 0 5 26.1868 11.1005 9.82734 
5551 0 5 22.5897 8.53283 11.797 
18569 0 5 24.2481 7.90058 12.007 
20718 0 5 24.0077 10.912 12.8686 
11290 0 5 24.2626 10.7674 13.94 
23809 0 5 27.5641 9.74324 14.4236 
15652 0 5 25.1018 7.23407 15.119 
21889 0 5 25.4732 9.77994 15.5491 
12125 0 5 26.1097 8.3737 18.0874 
4584 0 5 26.3681 6.84204 19.3945 
26932 0 5 25.4963 6.91002 20.6878 
4129 0 5 22.4191 7.88559 21.5695 
20968 0 5 24.7895 10.9665 20.8185 
25099 0 5 25.942 10.9896 22.141 
19879 0 5 27.0526 10.136 23.3661 
11889 0 5 26.4602 10.9276 24.0487 
23057 0 5 27.5859 10.8905 22.6705 
4883 0 5 26.1821 7.0481 24.6462 
10416 0 5 26.1343 9.04781 24.2742 
21516 0 5 25.127 7.19869 26.395 
3120 0 5 27.3187 8.58534 30.3008 
20468 0 5 23.4793 13.8921 1.5143 
10888 0 5 26.4193 14.6919 2.63373 
13770 0 5 26.9772 15.645 2.69455 
19399 0 5 22.7872 15.0324 5.89308 
12096 0 5 25.1906 12.7878 7.84842 
4384 0 5 25.3465 11.6704 7.89653 
9335 0 5 26.3205 14.7017 8.55388 
11969 0 5 25.6102 12.481 10.4065 
19396 0 5 23.081 16.8851 10.2884 
11864 0 5 24.6797 16.8871 10.7708 
15478 0 5 25.9249 16.4806 12.8683 
15979 0 5 24.9141 16.1133 14.9953 
11463 0 5 23.4936 13.9611 15.4559 
13470 0 5 26.8439 12.3472 19.1424 
25090 0 5 27.1764 13.4054 23.2842 
6236 0 5 24.694 16.8276 22.4821 
20892 0 5 24.8302 15.8265 27.741 
25623 0 5 24.6761 16.0139 29.1136 
20757 0 5 23.864 14.5509 30.4502 
21180 0 5 25.1299 19.5547 1.37549 
3126 0 5 26.9673 18.8454 5.78262 
4571 0 5 26.5055 22.1941 6.3186 
5500 0 5 23.4948 19.4302 8.95446 
1509 0 5 22.467 19.5842 9.11937 
24805 0 5 25.8347 19.8399 8.1932 
23132 0 5 26.2713 18.9266 9.61276 
14819 0 5 24.153 18.0628 9.71621 
20833 0 5 26.1252 18.1566 10.5034 
4482 0 5 26.8757 20.1998 10.1846 
7897 0 5 27.3812 21.0539 11.302 
1338 0 5 23.2756 17.4906 11.7189 
10622 0 5 24.7955 17.7407 13.661 
16074 0 5 22.8514 17.4787 17.8763 
25471 0 5 27.2154 17.3631 17.8026 
24482 0 5 24.6406 20.9648 18.319 
17373 0 5 24.348 18.9114 20.3404 
24480 0 5 26.6463 19.2852 19.7165 
7555 0 5 27.1368 19.8306 20.4727 
18832 0 5 25.2414 19.7126 20.9077 
5688 0 5 25.413 21.8024 20.5324 
2281 0 5 26.7507 17.1796 23.5828 
371 0 5 24.1528 20.2443 22.9108 
5582 0 5 24.0131 21.8358 23.9759 
25875 0 5 23.8643 19.2587 24.3505 
1380 0 5 23.787 17.0484 26.204 
2736 0 5 22.4504 19.8312 27.3175 
24954 0 5 24.3295 17.9267 29.4829 
4191 0 5 27.2949 20.3902 27.9969 
24317 0 5 23.8577 20.6869 28.295 
6523 0 5 22.6387 20.4063 31.3173 
18229 0 5 27.723 20.4222 31.8302 
25279 0 5 25.524 21.5373 32.3363 
2486 0 5 24.0275 25.033 2.24958 
12603 0 5 27.364 24.9286 1.77412 
19711 0 5 22.9039 23.0858 3.96844 
20736 0 5 24.0778 26.0985 2.44282 
1085 0 5 26.06 27.6238 4.08508 
11530 0 5 24.9106 23.0623 5.67938 
25927 0 5 23.3729 25.5102 5.98177 
24835 0 5 26.9457 26.7968 5.36128 
6512 0 5 25.1638 24.9055 6.69626 
17355 0 5 27.2135 23.5966 8.13536 
18214 0 5 26.738 25.9205 10.997 
24762 0 5 23.5181 24.4211 11.7504 
8536 0 5 26.4685 23.606 16.1383 
21523 0 5 24.641 24.0052 18.0971 
6213 0 5 22.9318 24.8916 16.9723 
13 0 5 23.3653 27.2457 18.2807 
18095 0 5 26.1652 24.0191 22.1375 
14877 0 5 22.7055 26.8879 21.4981 
23461 0 5 25.5567 25.3087 23.4482 
19998 0 5 23.9768 26.6523 23.4685 
12783 0 5 23.1539 26.2698 27.4148 
17168 0 5 26.8207 25.6806 28.7042 
9744 0 5 23.0061 24.8578 31.039 
9328 0 5 26.0669 23.6747 31.5529 
15807 0 5 23.725 26.0718 32.7623 
15381 0 5 26.0199 29.1622 1.75526 
18228 0 5 24.7286 29.2809 4.22782 
7737 0 5 25.15 31.3583 3.11805 
19689 0 5 22.7538 30.1769 4.92552 
12895 0 5 22.8381 28.4499 7.45912 
16424 0 5 26.5255 29.2631 8.78419 
22449 0 5 26.4459 31.5427 8.05132 
5663 0 5 25.4291 28.7216 9.79857 
26455 0 5 24.74 29.5797 9.69756 
3140 0 5 27.031 28.9475 11.5996 
19097 0 5 22.9826 31.0723 13.3556 
3049 0 5 22.7555 30.2061 14.1539 
22735 0 5 27.6964 29.6241 23.6079 
10890 0 5 22.4141 29.1507 24.3099 
24467 0 5 27.4259 29.0556 25.1614 
15517 0 5 24.4269 32.4984 25.8759 
19319 0 5 22.9676 29.3575 27.3003 
1599 0 5 24.4427 30.912 27.2654 
10620 0 5 25.3204 32.5285 27.3761 
19277 0 5 24.5627 31.9529 27.8466 
19754 0 5 26.188 28.3158 30.2991 
6937 0 5 24.3471 31.2876 32.405 
7738 0 5 31.4098 1.23529 1.87996 
12127 0 5 28.4089 2.88735 1.05316 
10199 0 5 30.9796 5.03715 1.07445 
12010 0 5 29.3853 5.09896 2.49393 
17064 0 5 32.6201 3.52961 5.04181 
16014 0 5 30.7782 0.743002 6.40005 
6506 0 5 31.2941 2.63677 6.35692 
23527 0 5 28.8269 5.27023 9.48561 
19310 0 5 29.1096 4.13842 11.093 
18855 0 5 29.4587 1.40319 11.5662 
3001 0 5 31.1729 5.50402 13.7518 
10773 0 5 29.1193 1.76201 15.5121 
21855 0 5 28.8618 4.75744 15.2041 
923 0 5 32.3425 1.07493 20.1636 
18322 0 5 32.0354 2.24551 19.5777 
2939 0 5 29.5418 2.44693 19.8637 
20033 0 5 27.9622 3.42981 20.367 
9703 0 5 31.272 5.42049 18.8576 
5326 0 5 28.5894 0.630608 21.9624 
9593 0 5 32.5915 4.32037 21.6173 
16281 0 5 28.9816 5.68164 23.476 
1605 0 5 29.2475 2.09799 25.7931 
13307 0 5 30.9915 3.83414 24.4624 
16185 0 5 30.1412 2.46521 26.8791 
8001 0 5 32.5259 3.70139 26.7363 
26505 0 5 31.3538 4.09211 28.1974 
19943 0 5 28.1341 5.17514 29.0623 
11041 0 5 30.4485 4.7192 28.4284 
9112 0 5 31.9336 4.3687 30.799 
7418 0 5 27.9042 3.29322 32.5925 
10539 0 5 30.7877 3.14093 32.1695 
1372 0 5 31.4438 2.98207 33.0498 
8370 0 5 31.1848 4.77571 31.7479 
26364 0 5 27.8248 10.387 1.56353 
20152 0 5 31.1565 10.6045 1.20215 
10229 0 5 27.9923 7.65679 3.46663 
15027 0 5 27.8412 6.17135 3.3509 
21757 0 5 32.261 6.43131 3.46984 
25925 0 5 28.8245 11.1147 4.10287 
23609 0 5 31.5056 10.3738 3.31092 
19341 0 5 29.6069 6.43012 5.69021 
22795 0 5 32.0273 7.40608 6.17731 
12207 0 5 30.5311 8.4446 6.25282 
15709 0 5 31.2559 7.12848 8.60053 
18473 0 5 32.6786 10.8483 9.48259 
19719 0 5 29.7617 6.80038 11.1301 
22670 0 5 31.1986 10.3281 11.6818 
18316 0 5 28.3167 6.11187 16.6166 
23557 0 5 31.9079 10.689 15.3324 
4398 0 5 29.6803 10.7239 18.0843 
25128 0 5 31.0254 6.86614 20.3956 
2523 0 5 29.3542 8.20253 19.9417 
11150 0 5 31.4939 9.53606 24.2762 
24530 0 5 28.6973 10.4683 25.4795 
20208 0 5 30.7264 10.3047 25.823 
9793 0 5 30.5093 11.0912 26.5711 
21728 0 5 32.1314 10.194 26.6678 
8455 0 5 32.4002 11.1726 27.116 
11858 0 5 28.9665 8.64067 27.8621 
25658 0 5 32.6 8.60078 28.0188 
7582 0 5 33.1132 9.58257 32.6235 
5381 0 5 30.6262 11.098 32.9551 
25694 0 5 29.932 13.9073 3.30423 
18087 0 5 33.0522 12.5534 4.5805 
24549 0 5 30.9921 14.5444 5.22721 
4140 0 5 33.0509 13.876 5.73733 
12049 0 5 32.0389 16.465 5.08924 
16485 0 5 30.7512 15.8067 7.17106 
21312 0 5 32.9527 15.7525 6.93991 
20205 0 5 30.0455 15.8731 8.06126 
1598 0 5 30.572 13.0019 13.1442 
22271 0 5 30.4713 16.2048 12.8268 
7564 0 5 29.9208 12.1071 15.0401 
20537 0 5 33.0722 12.3337 13.7401 
18045 0 5 28.7099 14.0258 14.2949 
7967 0 5 32.2904 14.4901 14.5993 
3923 0 5 28.8196 15.1621 14.9285 
9804 0 5 28.6161 16.6592 16.097 
16109 0 5 30.9757 15.6307 16.6578 
5741 0 5 32.5873 12.6489 18.8052 
21953 0 5 32.9148 13.0253 20.2288 
26602 0 5 27.7736 14.9949 19.4406 
11990 0 5 31.5199 13.0382 20.5279 
13922 0 5 29.5639 12.086 26.55 
26808 0 5 32.3158 15.3832 26.6765 
6696 0 5 29.7055 14.9461 28.927 
18909 0 5 29.5028 15.1861 31.3328 
1892 0 5 30.5035 18.5883 1.07528 
19024 0 5 32.215 18.8649 2.11598 
12223 0 5 28.4847 18.5378 3.98459 