LAMMPS (3 Mar 2020)
OMP_NUM_THREADS environment is not set. Defaulting to 1 thread. (src/comm.cpp:94)
  using 1 OpenMP thread(s) per MPI task
Reading restart file ...
  restart file = 3 Mar 2020, LAMMPS = 3 Mar 2020
  restoring atom style full from restart
  orthogonal box = (0.650903 0.650903 0.650903) to (33.3491 33.3491 33.3491)
  6 by 6 by 6 MPI processor grid
  restoring pair style hybrid/overlay from restart
  restoring bond style fene from restart
  28425 atoms
  8700 bonds
Finding 1-2 1-3 1-4 neighbors ...
  special bond factors lj:   0          1          1         
  special bond factors coul: 0          1          1         
  2 = max # of 1-2 neighbors
  6 = max # of special neighbors
  special bonds CPU = 2.55243 secs
  read_restart CPU = 2.76982 secs
Resetting global fix info from restart file:
  fix style: nvt, fix ID: pt
75 rigid bodies with 1425 atoms
Resetting global fix info from restart file:
  fix style: rigid/nvt, fix ID: ri
System init for write_data ...
PPPM initialization ...
  using 12-bit tables for long-range coulomb (src/kspace.cpp:332)
  G vector (1/distance) = 1.23028
  grid = 120 120 120
  stencil order = 5
  estimated absolute RMS force accuracy = 8.74042e-05
  estimated relative force accuracy = 8.74042e-05
  using double precision FFTW3
  3d grid and FFT values/proc = 19683 8400
All restart file global fix info was re-assigned
Unused restart file peratom fix info:
  fix style: STORE, fix ID: par_COMPUTE_STORE
WARNING: Neighbor exclusions used with KSpace solver may give inconsistent Coulombic energies (src/neighbor.cpp:486)
Neighbor list info ...
  update every 1 steps, delay 0 steps, check yes
  max neighbors/atom: 2000, page size: 100000
  master list distance cutoff = 2.8
  ghost atom cutoff = 2.8
  binsize = 1.4, bins = 24 24 24
  2 neighbor lists, perpetual/occasional/extra = 2 0 0
  (1) pair lj/cut, perpetual
      attributes: half, newton on
      pair build: half/bin/newton
      stencil: half/bin/3d/newton
      bin: standard
  (2) pair coul/long, perpetual, skip from (1)
      attributes: half, newton on
      pair build: skip
      stencil: none
      bin: none
PPPM initialization ...
  using 12-bit tables for long-range coulomb (src/kspace.cpp:332)
  G vector (1/distance) = 1.23028
  grid = 120 120 120
  stencil order = 5
  estimated absolute RMS force accuracy = 8.74042e-05
  estimated relative force accuracy = 8.74042e-05
  using double precision FFTW3
  3d grid and FFT values/proc = 19683 8400
WARNING: Neighbor exclusions used with KSpace solver may give inconsistent Coulombic energies (src/neighbor.cpp:486)
Neighbor list info ...
  update every 1 steps, delay 0 steps, check yes
  max neighbors/atom: 2000, page size: 100000
  master list distance cutoff = 2.8
  ghost atom cutoff = 2.8
  binsize = 1.4, bins = 24 24 24
  2 neighbor lists, perpetual/occasional/extra = 2 0 0
  (1) pair lj/cut, perpetual
      attributes: half, newton on
      pair build: half/bin/newton
      stencil: half/bin/3d/newton
      bin: standard
  (2) pair coul/long, perpetual, skip from (1)
      attributes: half, newton on
      pair build: skip
      stencil: none
      bin: none
Setting up Verlet run ...
  Unit style    : lj
  Current step  : 12000000
  Time step     : 0.005
Per MPI rank memory allocation (min/avg/max) = 11 | 11.04 | 11.18 Mbytes
Step Temp Press Volume 
12000000   0.79650939   -1.0119768    34959.991 
12010000   0.79653587   -0.4008256    34959.991 
12020000   0.80164226  -0.33599904    34959.991 
12030000   0.79856737  -0.39030377    34959.991 
12040000   0.79543965   -0.3500235    34959.991 
12050000   0.79675988  -0.41973018    34959.991 
12060000   0.80015818  -0.42359275    34959.991 
12070000   0.80255795     -0.30871    34959.991 
12080000   0.79533685  -0.43107348    34959.991 
12090000   0.79913786  -0.37754761    34959.991 
12100000   0.79391574  -0.36038371    34959.991 
12110000   0.79443692  -0.35850218    34959.991 
12120000   0.79295033  -0.39406964    34959.991 
12130000    0.8017696  -0.40196142    34959.991 
12140000   0.80474883  -0.44432428    34959.991 
12150000   0.80336095  -0.36510726    34959.991 
12160000   0.79979499  -0.33320563    34959.991 
12170000   0.81152613  -0.36645373    34959.991 
12180000   0.80003831  -0.34716605    34959.991 
12190000   0.79954395  -0.42121925    34959.991 
12200000   0.79792211  -0.32760253    34959.991 
12210000    0.7958669  -0.38296037    34959.991 
12220000   0.80300395  -0.34906326    34959.991 
12230000   0.79959916  -0.35342831    34959.991 
12240000   0.80133935  -0.41882206    34959.991 
12250000   0.79760866  -0.35938761    34959.991 
12260000   0.80350033  -0.42841178    34959.991 
12270000   0.79505834  -0.34028414    34959.991 
12280000   0.80218575  -0.39565451    34959.991 
12290000   0.80532071  -0.36041768    34959.991 
12300000   0.79765957  -0.35316654    34959.991 
12310000   0.80169306  -0.49439761    34959.991 
12320000   0.79438216  -0.41280169    34959.991 
12330000   0.79898333  -0.44431328    34959.991 
12340000   0.80026373  -0.41051698    34959.991 
12350000   0.79036522  -0.35283584    34959.991 
12360000   0.80005843  -0.35032491    34959.991 
12370000   0.79625263  -0.42348512    34959.991 
12380000   0.79477677  -0.38828282    34959.991 
12390000   0.80591096  -0.31082695    34959.991 
12400000   0.80522668  -0.30352681    34959.991 
12410000    0.7969728  -0.40287172    34959.991 
12420000   0.79889783  -0.37410862    34959.991 
12430000   0.80952198    -0.380254    34959.991 
12440000   0.80337478  -0.36194728    34959.991 
12450000   0.80218196  -0.36912569    34959.991 
12460000   0.79771534  -0.33761514    34959.991 
12470000   0.80192791  -0.32718578    34959.991 
12480000   0.79558512  -0.34006019    34959.991 
12490000   0.79957263  -0.31434207    34959.991 
12500000    0.8002439  -0.38474412    34959.991 
12510000   0.79405006  -0.42500217    34959.991 
12520000   0.79453168  -0.41826966    34959.991 
12530000   0.80668196  -0.34379964    34959.991 
12540000   0.79204198  -0.41540173    34959.991 
12550000   0.80748131  -0.34306947    34959.991 
12560000   0.79375372  -0.37511587    34959.991 
12570000   0.80236442  -0.37838674    34959.991 
12580000   0.80152612   -0.4004032    34959.991 
12590000   0.79614621  -0.30123258    34959.991 
12600000   0.80072144  -0.38070032    34959.991 
12610000   0.79720814  -0.34163157    34959.991 
12620000   0.80104336   -0.3771465    34959.991 
12630000   0.80355321  -0.40333217    34959.991 
12640000   0.80130524  -0.34111621    34959.991 
12650000   0.80021237  -0.39148923    34959.991 
12660000   0.79656243  -0.37696325    34959.991 
12670000   0.79901689  -0.45170132    34959.991 
12680000   0.79773564  -0.47008147    34959.991 
12690000   0.80147626  -0.37414602    34959.991 
12700000   0.80052308  -0.41434449    34959.991 
12710000   0.80722868  -0.39211048    34959.991 
12720000   0.79655887  -0.36334049    34959.991 
12730000   0.80094744  -0.41876152    34959.991 
12740000    0.7985924  -0.40356657    34959.991 
12750000    0.7953882   -0.3978337    34959.991 
12760000   0.80279443  -0.39264763    34959.991 
12770000   0.79840352    -0.362749    34959.991 
12780000   0.80521302  -0.42130858    34959.991 
12790000   0.79826199  -0.36375688    34959.991 
12800000   0.80101358  -0.32385163    34959.991 
12810000   0.79711186  -0.36633305    34959.991 
12820000   0.80176933  -0.41060764    34959.991 
12830000   0.80308575  -0.31337603    34959.991 
12840000    0.8011198   -0.3885549    34959.991 
12850000   0.79709923  -0.39430524    34959.991 
12860000   0.80092056  -0.35231497    34959.991 
12870000   0.80005147  -0.37919566    34959.991 
12880000   0.79316937  -0.29928369    34959.991 
12890000   0.79796503  -0.44196045    34959.991 
12900000   0.80438119  -0.30698558    34959.991 
12910000   0.80517317  -0.36415209    34959.991 
12920000   0.79307807  -0.31781371    34959.991 
12930000   0.79967777  -0.38700676    34959.991 
12940000    0.7897006  -0.31686493    34959.991 
12950000   0.79965142  -0.40722167    34959.991 
12960000   0.80444338  -0.37415631    34959.991 
12970000   0.80183908  -0.38044714    34959.991 
12980000   0.80014381  -0.43742452    34959.991 
12990000   0.79835808  -0.39369437    34959.991 
13000000   0.79703317  -0.42629519    34959.991 
Loop time of 15201.9 on 216 procs for 1000000 steps with 28425 atoms

Performance: 28417.500 tau/day, 65.781 timesteps/s
99.7% CPU use with 216 MPI tasks x 1 OpenMP threads

MPI task timing breakdown:
Section |  min time  |  avg time  |  max time  |%varavg| %total
---------------------------------------------------------------
Pair    | 160.63     | 214.25     | 481.46     | 389.0 |  1.41
Bond    | 1.611      | 2.3073     | 3.798      |  28.1 |  0.02
Kspace  | 13695      | 13933      | 14051      |  61.6 | 91.65
Neigh   | 152.94     | 160.66     | 166.66     |  20.9 |  1.06
Comm    | 292.05     | 370.05     | 575.35     | 289.2 |  2.43
Output  | 0.012057   | 0.015742   | 0.027601   |   1.4 |  0.00
Modify  | 349.78     | 400.45     | 450.72     | 106.1 |  2.63
Other   |            | 121.1      |            |       |  0.80

Nlocal:    131.597 ave 219 max 110 min
Histogram: 46 93 43 17 6 2 2 4 0 3
Nghost:    964.051 ave 1168 max 875 min
Histogram: 29 52 47 35 17 10 11 7 5 3
Neighs:    4897.22 ave 12933 max 3480 min
Histogram: 98 75 23 10 2 2 2 1 2 1

Total # of neighbors = 1057800
Ave neighs/atom = 37.2137
Ave special neighs/atom = 0.612137
Neighbor list builds = 134369
Dangerous builds = 0
PPPM initialization ...
  using 12-bit tables for long-range coulomb (src/kspace.cpp:332)
  G vector (1/distance) = 1.23028
  grid = 120 120 120
  stencil order = 5
  estimated absolute RMS force accuracy = 8.74042e-05
  estimated relative force accuracy = 8.74042e-05
  using double precision FFTW3
  3d grid and FFT values/proc = 19683 8400
WARNING: Neighbor exclusions used with KSpace solver may give inconsistent Coulombic energies (src/neighbor.cpp:486)
Neighbor list info ...
  update every 1 steps, delay 0 steps, check yes
  max neighbors/atom: 2000, page size: 100000
  master list distance cutoff = 2.8
  ghost atom cutoff = 2.8
  binsize = 1.4, bins = 24 24 24
  7 neighbor lists, perpetual/occasional/extra = 2 5 0
  (1) pair lj/cut, perpetual
      attributes: half, newton on
      pair build: half/bin/newton
      stencil: half/bin/3d/newton
      bin: standard
  (2) pair coul/long, perpetual, skip from (1)
      attributes: half, newton on
      pair build: skip
      stencil: none
      bin: none
  (3) compute rdf, occasional, copy from (1)
      attributes: half, newton on
      pair build: copy
      stencil: none
      bin: none
  (4) compute rdf, occasional, copy from (1)
      attributes: half, newton on
      pair build: copy
      stencil: none
      bin: none
  (5) compute rdf, occasional, copy from (1)
      attributes: half, newton on
      pair build: copy
      stencil: none
      bin: none
  (6) compute rdf, occasional, copy from (1)
      attributes: half, newton on
      pair build: copy
      stencil: none
      bin: none
  (7) compute rdf, occasional, copy from (1)
      attributes: half, newton on
      pair build: copy
      stencil: none
      bin: none
Setting up Verlet run ...
  Unit style    : lj
  Current step  : 0
  Time step     : 0.005
Per MPI rank memory allocation (min/avg/max) = 19.55 | 20.07 | 20.73 Mbytes
Step Temp Press PotEng KinEng E_pair E_bond TotEng 
       0   0.79703317   0.20515434    -1.033348    1.1418815   -7.3520686    6.3187206   0.10853346 
   10000   0.79960055  -0.39097588   -1.0277417    1.1455597   -7.3441852    6.3164435   0.11781796 
   20000    0.7955285  -0.39077125   -1.0185477    1.1397258   -7.3386005    6.3200528   0.12117807 
   30000   0.79960123  -0.33635112   -1.0193394    1.1455606   -7.3382069    6.3188675   0.12622123 
   40000   0.80274514  -0.37049925   -1.0256971    1.1500648   -7.3426606    6.3169635   0.12436769 
   50000   0.79946599  -0.46969368    -1.019961    1.1453669   -7.3371842    6.3172231   0.12540583 
   60000   0.79911924  -0.38701772   -1.0243436    1.1448701   -7.3417693    6.3174256   0.12052644 
   70000   0.80163193  -0.43694319   -1.0245218    1.1484699    -7.339268    6.3147462   0.12394813 
   80000   0.79877509  -0.37983473   -1.0226439     1.144377   -7.3430442    6.3204003   0.12173316 
   90000   0.79977321  -0.40072661   -1.0284709     1.145807   -7.3471918    6.3187209    0.1173361 
  100000    0.8011156   -0.3416033   -1.0327872    1.1477302   -7.3503564    6.3175692   0.11494304 
  110000   0.79468973  -0.41710922    -1.029482    1.1385241   -7.3500468    6.3205648    0.1090421 
  120000   0.79365676   -0.3855631   -1.0226478    1.1370442   -7.3434351    6.3207873   0.11439643 
  130000    0.8034185  -0.33383617    -1.028888    1.1510295   -7.3435163    6.3146283   0.12214152 
  140000   0.80583114  -0.33886717   -1.0222132     1.154486   -7.3388083    6.3165951   0.13227282 
  150000   0.79633197   -0.3493636   -1.0285829    1.1408769   -7.3472355    6.3186526     0.112294 
  160000   0.80596179  -0.41221413   -1.0262305    1.1546732   -7.3440661    6.3178356    0.1284427 
  170000   0.80290837  -0.38468604   -1.0316154    1.1502986   -7.3501463    6.3185309   0.11868327 
  180000   0.80356615  -0.37322465   -1.0256552     1.151241   -7.3439681    6.3183129   0.12558586 
  190000   0.79484396  -0.39052612   -1.0310761     1.138745   -7.3515672    6.3204911   0.10766895 
  200000   0.80875518   -0.3130581   -1.0246884    1.1586752   -7.3426623    6.3179739   0.13398672 
  210000   0.80955325  -0.36983616   -1.0230728    1.1598185   -7.3410466    6.3179737   0.13674569 
  220000   0.80405128  -0.40063167   -1.0260809     1.151936   -7.3437036    6.3176227   0.12585513 
  230000   0.80244712  -0.35550099   -1.0297905    1.1496378   -7.3482799    6.3184894   0.11984733 
  240000   0.80118439  -0.39668541   -1.0279185    1.1478288   -7.3443916    6.3164731   0.11991029 
  250000   0.79662144  -0.46860974   -1.0311742    1.1412916   -7.3472261    6.3160519   0.11011744 
  260000   0.79920481  -0.38883395   -1.0396192    1.1449927   -7.3559262    6.3163071   0.10537352 
  270000   0.80239557  -0.30971902   -1.0223757     1.149564   -7.3393837     6.317008   0.12718831 
  280000   0.79555153  -0.28326453   -1.0196787    1.1397588   -7.3394669    6.3197882   0.12008003 
  290000   0.79814847  -0.33832887   -1.0177815    1.1434793   -7.3382999    6.3205184   0.12569782 
  300000   0.79677084  -0.37481763   -1.0218395    1.1415056    -7.339872    6.3180325   0.11966609 
  310000   0.80018399   -0.4013984   -1.0220226    1.1463955   -7.3402935    6.3182709   0.12437289 
  320000   0.80145551  -0.39267411   -1.0166867    1.1482172   -7.3343648    6.3176781   0.13153049 
  330000   0.80054231  -0.44571984   -1.0355519    1.1469089   -7.3546629    6.3191109   0.11135693 
  340000   0.79867216  -0.39111369   -1.0225659    1.1442296   -7.3413675    6.3188016   0.12166366 
  350000   0.79579466  -0.40235758   -1.0202923    1.1401071   -7.3378784    6.3175862   0.11981482 
  360000   0.80066423  -0.37250978    -1.029031    1.1470835   -7.3486674    6.3196364    0.1180525 
  370000   0.79852783  -0.33831052   -1.0216899    1.1440228   -7.3370922    6.3154023   0.12233293 
  380000   0.80493614  -0.43080553   -1.0325964    1.1532038   -7.3452906    6.3126942   0.12060731 
  390000    0.7974172  -0.34615994   -1.0214968    1.1424316    -7.342485    6.3209882   0.12093484 
  400000   0.79860346   -0.3304284   -1.0218269    1.1441311   -7.3408307    6.3190038   0.12230425 
  410000    0.7995423  -0.37589822   -1.0223819    1.1454762   -7.3398197    6.3174378   0.12309426 
  420000   0.79516467  -0.36715474   -1.0204227    1.1392045    -7.336979    6.3165563   0.11878178 
  430000   0.80187915  -0.38185125    -1.027574    1.1488241   -7.3454589    6.3178849   0.12125015 
  440000   0.79662213   -0.4269807   -1.0282958    1.1412926    -7.344619    6.3163232    0.1129968 
  450000    0.7968598  -0.35208123   -1.0241053    1.1416331   -7.3406785    6.3165732   0.11752776 
  460000    0.8085758  -0.35332148   -1.0199485    1.1584182   -7.3378838    6.3179354   0.13846971 
  470000   0.79563809  -0.32259347   -1.0198185    1.1398828   -7.3379254    6.3181069   0.12006423 
  480000   0.80013624  -0.38482302   -1.0261869    1.1463271   -7.3430812    6.3168943   0.12014021 
  490000   0.79501112  -0.39811861   -1.0167196    1.1389845   -7.3370178    6.3202982   0.12226493 
  500000   0.78778986  -0.32241749    -1.025001    1.1286389   -7.3414335    6.3164325   0.10363786 
  510000    0.7982564  -0.41268492    -1.028334    1.1436339    -7.345546     6.317212   0.11529996 
  520000      0.79683  -0.37642882   -1.0285393    1.1415904    -7.344007    6.3154677   0.11305106 
  530000   0.80569127  -0.37618979   -1.0362534    1.1542856   -7.3531182    6.3168648   0.11803218 
  540000   0.80119817  -0.34849735   -1.0307069    1.1478485   -7.3468155    6.3161086   0.11714161 
  550000   0.80826897  -0.33467473   -1.0230418    1.1579786   -7.3410332    6.3179915   0.13493683 
  560000   0.79625474  -0.42926333   -1.0303063    1.1407662    -7.342765    6.3124587    0.1104599 
  570000   0.80111175  -0.45431053   -1.0234347    1.1477247   -7.3456694    6.3222347   0.12429002 
  580000   0.79297314  -0.31884737   -1.0251626    1.1360648   -7.3446966    6.3195341   0.11090224 
  590000   0.79580774  -0.35628958   -1.0153358    1.1401258   -7.3337771    6.3184413   0.12478999 
  600000   0.79850374  -0.38412344   -1.0395014    1.1439883   -7.3588681    6.3193667   0.10448689 
  610000   0.80035027  -0.46043743    -1.036489    1.1466338   -7.3534985    6.3170096   0.11014479 
  620000   0.80659585  -0.32134976   -1.0204743    1.1555816   -7.3386405    6.3181662   0.13510729 
  630000    0.8015631  -0.32580157   -1.0204351    1.1483713   -7.3375841     6.317149   0.12793619 
  640000   0.80407218  -0.37540982   -1.0229675     1.151966   -7.3411229    6.3181554   0.12899849 
  650000    0.8004927  -0.32298973   -1.0253778    1.1468378   -7.3405399    6.3151622   0.12146003 
  660000   0.80656416  -0.38053985   -1.0317314    1.1555362   -7.3502495    6.3185181   0.12380476 
  670000   0.80031961  -0.31713552   -1.0265845    1.1465898   -7.3445443    6.3179598   0.12000537 
  680000   0.79779821  -0.42301791   -1.0331029    1.1429775   -7.3466784    6.3135755   0.10987459 
  690000   0.79401639  -0.35432477   -1.0251065    1.1375594   -7.3424783    6.3173717   0.11245287 
  700000   0.79933674  -0.42465429   -1.0312926    1.1451817   -7.3481762    6.3168837   0.11388912 
  710000   0.79495346  -0.35141127   -1.0248665    1.1389019   -7.3384946    6.3136281   0.11403545 
  720000   0.80962605  -0.36227901   -1.0261214    1.1599228   -7.3421733    6.3160519   0.13380145 
  730000   0.80357689  -0.39716324   -1.0265578    1.1512564   -7.3444549    6.3178971   0.12469856 
  740000   0.80402195   -0.3752733   -1.0293149     1.151894   -7.3463993    6.3170843   0.12257912 
  750000   0.79423082  -0.36304229   -1.0208101    1.1378666   -7.3380233    6.3172131   0.11705648 
  760000   0.80469829  -0.38580837   -1.0258388     1.152863   -7.3451012    6.3192624   0.12702418 
  770000   0.80095167  -0.40702609   -1.0327713    1.1474953   -7.3494291    6.3166578   0.11472401 
  780000    0.8005136  -0.35689784   -1.0229633    1.1468677   -7.3417912    6.3188279   0.12390445 
  790000   0.79837818  -0.38776415   -1.0179111    1.1438084   -7.3334078    6.3154968   0.12589735 
  800000   0.80020906  -0.41329995   -1.0322211    1.1464314    -7.351741    6.3195198   0.11421029 
  810000    0.8023815  -0.36627364   -1.0232508    1.1495438   -7.3403655    6.3171147   0.12629304 
  820000   0.79445785  -0.37202046   -1.0272848    1.1381919   -7.3442116    6.3169268   0.11090708 
  830000   0.80519287  -0.42555569   -1.0272826    1.1535716   -7.3431131    6.3158305   0.12628898 
  840000   0.79870903  -0.32561579   -1.0218368    1.1442824   -7.3398988     6.318062   0.12244556 
  850000   0.79561174  -0.42965753   -1.0347542     1.139845   -7.3503161    6.3155619   0.10509082 
  860000   0.80251065  -0.35856845   -1.0245283    1.1497289   -7.3457449    6.3212166   0.12520052 
  870000   0.80069939  -0.37374994   -1.0256183    1.1471339   -7.3426669    6.3170487   0.12151564 
  880000   0.79649742  -0.41239265   -1.0331379    1.1411139   -7.3484807    6.3153428   0.10797596 
  890000   0.79863495   -0.4258424   -1.0323532    1.1441763   -7.3450608    6.3127075   0.11182301 
  900000   0.79867522  -0.39807936   -1.0321481     1.144234   -7.3475957    6.3154476   0.11208589 
  910000   0.80176467  -0.33296103   -1.0229344    1.1486601   -7.3402054     6.317271   0.12572569 
  920000   0.80360956  -0.39335508   -1.0214583    1.1513032   -7.3376421    6.3161838   0.12984495 
  930000   0.79994091  -0.39070911   -1.0272678    1.1460473   -7.3455023    6.3182344   0.11877942 
  940000   0.79570363  -0.31370815   -1.0242759    1.1399767   -7.3428088    6.3185329   0.11570079 
  950000   0.80465959  -0.32227743   -1.0306674    1.1528076   -7.3455502    6.3148827   0.12214014 
  960000   0.79871093  -0.42382515   -1.0363242    1.1442851    -7.351909    6.3155848   0.10796089 
  970000   0.79981212  -0.37271811   -1.0252139    1.1458628   -7.3419856    6.3167717   0.12064882 
  980000    0.8021017   -0.3815304   -1.0277179     1.149143   -7.3426712    6.3149532   0.12142502 
  990000   0.79340352   -0.4269207   -1.0288834    1.1366814    -7.346474    6.3175907   0.10779801 
 1000000   0.80119951  -0.35718196   -1.0232623    1.1478504   -7.3403296    6.3170673   0.12458809 
 1010000   0.80426722  -0.33998369   -1.0292495    1.1522454   -7.3458747    6.3166252   0.12299596 
 1020000   0.79839561  -0.42347403    -1.028717    1.1438334    -7.344782     6.316065   0.11511638 
 1030000   0.79992383   -0.3871642   -1.0221685    1.1460228   -7.3379885      6.31582   0.12385431 
 1040000   0.79708916  -0.36089027    -1.025013    1.1419617   -7.3439243    6.3189112   0.11694863 
 1050000   0.80088411  -0.38077637   -1.0295146    1.1473986    -7.345444    6.3159293   0.11788393 
 1060000   0.80164959  -0.33633543   -1.0275016    1.1484952   -7.3466403    6.3191387   0.12099362 
 1070000   0.80047624  -0.37465818   -1.0252794    1.1468142   -7.3386225    6.3133431   0.12153477 
 1080000   0.79760044  -0.32041965   -1.0231837    1.1426942   -7.3397389    6.3165553   0.11951049 
 1090000   0.81136374  -0.35741417    -1.024721    1.1624124   -7.3420899    6.3173689   0.13769133 
 1100000   0.80206117  -0.34913978   -1.0273646    1.1490849   -7.3442343    6.3168697   0.12172034 
 1110000   0.80526103  -0.43993189   -1.0288935    1.1536692   -7.3435204    6.3146269   0.12477572 
 1120000   0.79261678  -0.41769484   -1.0304265    1.1355542   -7.3477084    6.3172818   0.10512772 
 1130000   0.80452924  -0.43801148   -1.0328842    1.1526208   -7.3486912     6.315807   0.11973665 
 1140000   0.80621855  -0.34089779   -1.0185449     1.155041   -7.3367157    6.3181709   0.13649616 
 1150000   0.79675384  -0.45511205   -1.0232793    1.1414813   -7.3414628    6.3181836   0.11820199 
 1160000   0.80057703  -0.34748603   -1.0256574    1.1469586   -7.3437957    6.3181384   0.12130124 
 1170000   0.81006625  -0.40190576   -1.0276172    1.1605535   -7.3431212     6.315504   0.13293632 
 1180000   0.79388876  -0.34088192   -1.0211774    1.1373766   -7.3386107    6.3174334    0.1161992 
 1190000   0.80672291  -0.39180262    -1.028613    1.1557636   -7.3442214    6.3156084   0.12715061 
 1200000   0.79276078  -0.35110893   -1.0278329    1.1357605   -7.3455463    6.3177133    0.1079276 
 1210000   0.79183275  -0.34696446   -1.0232935     1.134431   -7.3424003    6.3191068   0.11113744 
 1220000   0.79509941  -0.30842149   -1.0189569     1.139111   -7.3348346    6.3158777   0.12015412 
 1230000    0.8004474  -0.39243722   -1.0374852    1.1467729   -7.3522162     6.314731   0.10928774 
 1240000   0.79820514  -0.43466027   -1.0370108    1.1435605    -7.352001    6.3149902   0.10654972 
 1250000   0.80485549  -0.34129138   -1.0227429    1.1530882   -7.3396017    6.3168587   0.13034529 
 1260000   0.80469448  -0.33906746   -1.0300381    1.1528575   -7.3466389    6.3166008   0.12281942 
 1270000    0.7984523  -0.36417206   -1.0241865    1.1439146   -7.3421269    6.3179404   0.11972805 
 1280000    0.7976032  -0.32050526   -1.0349115    1.1426981   -7.3534829    6.3185714   0.10778658 
 1290000   0.80115036  -0.31825604   -1.0214106      1.14778   -7.3411006      6.31969   0.12636944 
 1300000   0.80171176   -0.3885572   -1.0304026    1.1485843   -7.3452119    6.3148093   0.11818174 
 1310000   0.80479888  -0.38509675    -1.023387    1.1530071   -7.3403314    6.3169445   0.12962015 
 1320000   0.80068019  -0.48144287   -1.0273653    1.1471064   -7.3420787    6.3147134   0.11974114 
 1330000   0.80277871   -0.3259589   -1.0266358    1.1501129   -7.3451818     6.318546   0.12347707 
 1340000   0.79926657   -0.3575158   -1.0213843    1.1450812   -7.3411151    6.3197308   0.12369682 
 1350000   0.79899368  -0.37849484   -1.0366986    1.1446902   -7.3513571    6.3146585   0.10799162 
 1360000   0.80105908  -0.37373671   -1.0305391    1.1476492   -7.3467274    6.3161883   0.11711015 
 1370000   0.79378834  -0.41743183   -1.0344517    1.1372327   -7.3527544    6.3183027   0.10278102 
 1380000   0.80754137  -0.34598189   -1.0290907    1.1569362   -7.3466965    6.3176058   0.12784549 
 1390000    0.8017512  -0.45061028   -1.0297575    1.1486408   -7.3455109    6.3157533   0.11888328 
 1400000   0.79609009  -0.38196457   -1.0235303    1.1405303   -7.3425743     6.319044   0.11700003 
 1410000   0.79940191  -0.34163551   -1.0278611    1.1452751    -7.340386    6.3125249     0.117414 
 1420000    0.7935661    -0.411976   -1.0206032    1.1369143   -7.3366912     6.316088    0.1163111 
 1430000   0.79415644  -0.39030347   -1.0289337    1.1377601   -7.3425067     6.313573   0.10882633 
 1440000    0.8011569  -0.39486217   -1.0256263    1.1477894   -7.3406539    6.3150276   0.12216312 
 1450000   0.79910399  -0.29678148   -1.0203731    1.1448482   -7.3395077    6.3191346   0.12447512 
 1460000   0.79784149  -0.37182575   -1.0304076    1.1430395   -7.3466042    6.3161966   0.11263188 
 1470000   0.79648449  -0.29605303   -1.0251435    1.1410954   -7.3396117    6.3144682   0.11595186 
 1480000   0.80419393  -0.43317046    -1.021626    1.1521404   -7.3404936    6.3188676   0.13051444 
 1490000   0.79936849  -0.42458399   -1.0315329    1.1452272   -7.3475836    6.3160507   0.11369426 
 1500000   0.80518062  -0.44288464   -1.0237937     1.153554   -7.3428068    6.3190131   0.12976027 
 1510000   0.79597992  -0.27142617   -1.0173036    1.1403725   -7.3337823    6.3164787   0.12306892 
 1520000   0.79356644  -0.37139199   -1.0177041    1.1369148   -7.3397288    6.3220247   0.11921071 
 1530000   0.79853488  -0.35953807   -1.0175331    1.1440329    -7.335459    6.3179259   0.12649977 
 1540000   0.80848308  -0.39531357   -1.0262118    1.1582853   -7.3445909    6.3183792   0.13207355 
 1550000    0.7948387  -0.40662193   -1.0347223    1.1387375   -7.3494537    6.3147314   0.10401517 
 1560000    0.7981765  -0.43131735   -1.0333825    1.1435195   -7.3483447    6.3149622   0.11013697 
 1570000   0.80353173  -0.34310877   -1.0289185    1.1511917   -7.3427256    6.3138071   0.12227319 
 1580000   0.80118867  -0.42678497   -1.0260399    1.1478349   -7.3423935    6.3163536   0.12179502 
 1590000   0.80167421   -0.3189098   -1.0152871    1.1485305   -7.3366667    6.3213796   0.13324336 
 1600000    0.8072676  -0.37879022   -1.0321192     1.156544   -7.3463978    6.3142786   0.12442476 
 1610000   0.80270268  -0.33344871    -1.017993     1.150004   -7.3346081    6.3166151   0.13201101 
 1620000    0.7988036   -0.3798186   -1.0225634    1.1444179   -7.3391296    6.3165662    0.1218545 
 1630000   0.80727642  -0.44519976   -1.0354406    1.1565566   -7.3538215    6.3183809   0.12111605 
 1640000   0.79192579  -0.35950006   -1.0294183    1.1345643   -7.3432444    6.3138261   0.10514601 
 1650000   0.80226851  -0.40432614   -1.0206462    1.1493819   -7.3369992     6.316353   0.12873578 
 1660000   0.80292259  -0.28202707    -1.022504     1.150319   -7.3383614    6.3158574   0.12781498 
 1670000   0.79563908  -0.39897588   -1.0303378    1.1398842   -7.3498899    6.3195521   0.10954639 
 1680000   0.79848435  -0.36454726    -1.027199    1.1439605   -7.3440187    6.3168197   0.11676147 
 1690000      0.79692   -0.4183058   -1.0263155    1.1417193   -7.3441032    6.3177877   0.11540381 
 1700000   0.79230599  -0.41058708   -1.0276022     1.135109   -7.3426323    6.3150301   0.10750678 
 1710000    0.7952141  -0.38447808   -1.0285699    1.1392753   -7.3440724    6.3155025   0.11070543 
 1720000   0.79957713  -0.34352742   -1.0242259    1.1455261   -7.3440024    6.3197764   0.12130017 
 1730000   0.79961561  -0.48123839    -1.032072    1.1455812   -7.3491665    6.3170945   0.11350927 
 1740000   0.79615994  -0.36642986   -1.0203939    1.1406304   -7.3399656    6.3195718   0.12023655 
 1750000   0.79594436    -0.407729   -1.0273575    1.1403216   -7.3457702    6.3184127   0.11296405 
 1760000   0.79453707  -0.45651045   -1.0280991    1.1383054    -7.345564    6.3174649   0.11020625 
 1770000   0.79824513  -0.33515216   -1.0283298    1.1436178   -7.3436386    6.3153088   0.11528798 
 1780000   0.80567608  -0.36605158   -1.0244334    1.1542639   -7.3391834      6.31475   0.12983043 
 1790000   0.79402167  -0.38054978   -1.0260933     1.137567    -7.342761    6.3166677   0.11147373 
 1800000   0.79922216  -0.33386519   -1.0190317    1.1450175   -7.3382353    6.3192035   0.12598583 
 1810000   0.79467851  -0.33137587   -1.0307375     1.138508   -7.3484241    6.3176866   0.10777052 
 1820000   0.80161129  -0.41987638   -1.0298766    1.1484404   -7.3470146     6.317138   0.11856377 
 1830000   0.79837349  -0.37329914   -1.0293788    1.1438017   -7.3438259    6.3144471   0.11442285 
 1840000    0.7969621  -0.33248958   -1.0223697    1.1417796   -7.3414396    6.3190699   0.11940992 
 1850000   0.79808988  -0.42713972    -1.023804    1.1433954   -7.3456744    6.3218704   0.11959137 
 1860000   0.79328427  -0.42311919    -1.031787    1.1365105   -7.3466025    6.3148155   0.10472356 
 1870000   0.80445977   -0.4180697   -1.0285534    1.1525213   -7.3426334    6.3140801   0.12396792 
 1880000   0.79862168  -0.37044813   -1.0242966    1.1441573   -7.3404868    6.3161902   0.11986065 
 1890000   0.79544833  -0.34290385   -1.0245637    1.1396109   -7.3404321    6.3158684    0.1150472 
 1900000   0.80441652  -0.40661452   -1.0258859    1.1524593    -7.342621    6.3167351   0.12657338 
 1910000   0.79883665  -0.42725842   -1.0344205    1.1444652   -7.3509978    6.3165773   0.11004476 
 1920000   0.79982911  -0.41280904   -1.0261173    1.1458871    -7.337325    6.3112077   0.11976978 
 1930000   0.80213289  -0.34249733   -1.0201113    1.1491876   -7.3373368    6.3172255   0.12907637 
 1940000   0.80225522  -0.43272709   -1.0342299    1.1493629   -7.3494958    6.3152659   0.11513304 
 1950000   0.80289213  -0.42347491   -1.0341962    1.1502754   -7.3511882    6.3169919   0.11607915 
 1960000   0.79970293  -0.41978689   -1.0335668    1.1457063   -7.3492871    6.3157203   0.11213954 
 1970000   0.79446174  -0.35007398   -1.0133322    1.1381975   -7.3349276    6.3215954   0.12486526 
 1980000   0.79682278  -0.35557849   -1.0308564      1.14158   -7.3481695    6.3173131    0.1107236 
 1990000   0.80099773  -0.40090137    -1.026613    1.1475613   -7.3416008    6.3149878   0.12094832 
 2000000   0.80487203  -0.39614193   -1.0317931    1.1531119   -7.3473366    6.3155435    0.1213188 
 2010000   0.79341307  -0.39838102   -1.0259016    1.1366951   -7.3421522    6.3162505   0.11079342 
 2020000   0.80238688  -0.41637424   -1.0276919    1.1495515   -7.3441616    6.3164696   0.12185962 
 2030000   0.79658736  -0.36501416   -1.0345455    1.1412428   -7.3508415    6.3162961    0.1066973 
 2040000   0.80537698  -0.35345758   -1.0278036    1.1538353   -7.3431973    6.3153937    0.1260317 
 2050000   0.79782672  -0.35903419   -1.0245794    1.1430183   -7.3392891    6.3147097   0.11843899 
 2060000   0.79788299  -0.40000353   -1.0264006     1.143099   -7.3456046     6.319204   0.11669836 
 2070000   0.79231714  -0.35804412   -1.0185502     1.135125   -7.3402452     6.321695   0.11657472 
 2080000   0.79645907  -0.41342423   -1.0308712     1.141059   -7.3448145    6.3139433   0.11018777 
 2090000   0.80527406  -0.35165409   -1.0284786    1.1536879    -7.350261    6.3217823   0.12520928 
 2100000   0.79486668  -0.37365365   -1.0281813    1.1387776   -7.3476227    6.3194414   0.11059635 
 2110000   0.80271607  -0.37710729   -1.0212194    1.1500231   -7.3391006    6.3178811   0.12880374 
 2120000   0.79383659  -0.38966601   -1.0327791    1.1373018    -7.349965     6.317186   0.10452276 
 2130000    0.8019827  -0.32538338   -1.0233219    1.1489725   -7.3395055    6.3161836   0.12565057 
 2140000   0.79595768   -0.3516302   -1.0247227    1.1403406   -7.3419542    6.3172314   0.11561789 
 2150000   0.80328775  -0.43832045   -1.0258375    1.1508422   -7.3408465     6.315009   0.12500466 
 2160000   0.80284811  -0.36133338   -1.0327595    1.1502123   -7.3496107    6.3168512   0.11745279 
 2170000   0.80175981  -0.39440351   -1.0291943    1.1486531   -7.3453898    6.3161955   0.11945879 
 2180000   0.79921434  -0.36765996   -1.0214113    1.1450063   -7.3380964    6.3166851   0.12359505 
 2190000   0.79953488  -0.41166001   -1.0282786    1.1454656   -7.3451838    6.3169052   0.11718695 
 2200000   0.80697667  -0.35725793   -1.0265107    1.1561272    -7.344135    6.3176242   0.12961643 
 2210000   0.80326246  -0.38961348   -1.0238917    1.1508059   -7.3430121    6.3191204   0.12691424 
 2220000   0.79624698  -0.41689459   -1.0308963    1.1407551   -7.3453938    6.3144975   0.10985879 
 2230000   0.80643575  -0.41487091   -1.0260226    1.1553522   -7.3416761    6.3156534    0.1293296 
 2240000   0.80204685  -0.36471273   -1.0267625    1.1490644   -7.3398468    6.3130843   0.12230189 
 2250000   0.79704907  -0.39667734   -1.0301188    1.1419042   -7.3486334    6.3185146   0.11178543 
 2260000   0.80534378  -0.40219314   -1.0333971    1.1537878   -7.3457031    6.3123061   0.12039072 
 2270000      0.79681   -0.3689293   -1.0255135    1.1415617   -7.3420137    6.3165002   0.11604824 
 2280000   0.80162478  -0.36779835   -1.0286331    1.1484597    -7.346406    6.3177729   0.11982662 
 2290000   0.79581848  -0.29537738   -1.0234132    1.1401412   -7.3367419    6.3133287   0.11672805 
 2300000    0.7964337  -0.34315188   -1.0331479    1.1410226   -7.3510005    6.3178526   0.10787474 
 2310000   0.80035224  -0.42848846   -1.0315128    1.1466366   -7.3470855    6.3155727   0.11512372 
 2320000   0.79304069  -0.38644049   -1.0240919    1.1361616   -7.3420073    6.3179154   0.11206971 
 2330000   0.80248838  -0.31461079   -1.0245469    1.1496969   -7.3423462    6.3177992   0.12515001 
 2340000   0.80357149   -0.3534409   -1.0240728    1.1512487   -7.3382751    6.3142024   0.12717593 
 2350000   0.79518675  -0.33830709   -1.0242133    1.1392362   -7.3399993     6.315786   0.11502285 
 2360000   0.79858397  -0.39498249   -1.0358089    1.1441032   -7.3479839    6.3121751   0.10829437 
 2370000   0.79846195  -0.40549397   -1.0198938    1.1439284   -7.3372583    6.3173645   0.12403462 
 2380000   0.79898543  -0.33580965   -1.0319551    1.1446784   -7.3487847    6.3168296   0.11272328 
 2390000      0.79929  -0.35175598   -1.0284086    1.1451147   -7.3441439    6.3157353   0.11670615 
 2400000    0.8020709  -0.27665317   -1.0232528    1.1490988   -7.3394197    6.3161669   0.12584599 
 2410000   0.80061199  -0.36396389   -1.0217802    1.1470087   -7.3415272     6.319747   0.12522845 
 2420000   0.79920182  -0.31364502     -1.02315    1.1449884   -7.3381044    6.3149544   0.12183844 
 2430000   0.80726655  -0.36031649   -1.0245264    1.1565425   -7.3394689    6.3149425   0.13201607 
 2440000   0.79671012   -0.4175284   -1.0231682    1.1414186   -7.3395526    6.3163845   0.11825047 
 2450000   0.80262709  -0.33996734   -1.0268287    1.1498957   -7.3452943    6.3184656   0.12306699 
 2460000   0.79729901  -0.36329147   -1.0193399    1.1422623   -7.3332743    6.3139344   0.12292241 
 2470000   0.78750729  -0.39309839   -1.0145217    1.1282341   -7.3346912    6.3201695   0.11371232 
 2480000   0.80711128  -0.33608542   -1.0263961      1.15632   -7.3447555    6.3183594    0.1299239 
 2490000   0.79904328  -0.36439136    -1.027124    1.1447613   -7.3438664    6.3167424   0.11763724 
 2500000   0.80101686  -0.36705132   -1.0260773    1.1475887   -7.3450107    6.3189334    0.1215115 
 2510000   0.79813762  -0.33395759   -1.0172617    1.1434638    -7.336929    6.3196674    0.1262021 
 2520000   0.79372271  -0.34088477   -1.0307106    1.1371387   -7.3485382    6.3178276   0.10642805 
 2530000   0.80244108  -0.40847726   -1.0278218    1.1496292   -7.3474093    6.3195875    0.1218074 
 2540000   0.80376403  -0.35787039    -1.028325    1.1515245   -7.3416309    6.3133059   0.12319952 
 2550000   0.79478147  -0.37505221   -1.0299777    1.1386555   -7.3438618    6.3138841   0.10867783 
 2560000   0.79623495  -0.36097786   -1.0223977    1.1407379   -7.3379687     6.315571   0.11834018 
 2570000   0.79488675  -0.41763664   -1.0337517    1.1388063   -7.3493262    6.3155745   0.10505469 
 2580000    0.8005994  -0.42458227   -1.0262616    1.1469907   -7.3448645     6.318603    0.1207291 
 2590000    0.7914846  -0.33122352   -1.0226259    1.1339322   -7.3391528    6.3165268   0.11130627 
 2600000   0.79940887  -0.38859774   -1.0284302     1.145285   -7.3448527    6.3164225   0.11685481 
 2610000   0.80390419  -0.40516554   -1.0241681    1.1517253   -7.3397203    6.3155522   0.12755719 
 2620000   0.80807242   -0.3633658   -1.0246486     1.157697   -7.3407391    6.3160905   0.13304838 
 2630000   0.80736636  -0.33641922    -1.025902    1.1566855   -7.3446734    6.3187714   0.13078346 
 2640000   0.79875034  -0.43788954   -1.0246143    1.1443416   -7.3432707    6.3186564   0.11972727 
 2650000   0.79820901  -0.38484578   -1.0260064     1.143566   -7.3445433    6.3185369   0.11755965 
 2660000   0.80223729   -0.3942673   -1.0301586    1.1493372   -7.3448939    6.3147353   0.11917866 
 2670000   0.80323423  -0.41914871   -1.0217653    1.1507655   -7.3385477    6.3167824    0.1290002 
 2680000   0.79505299   -0.4261275   -1.0208658    1.1390445   -7.3415344    6.3206686   0.11817869 
 2690000    0.8020313  -0.34521756   -1.0222529    1.1490421   -7.3387321    6.3164792   0.12678921 
 2700000   0.79659514  -0.42734011   -1.0346018    1.1412539   -7.3512387    6.3166369   0.10665206 
 2710000    0.8019922  -0.41344237   -1.0286775    1.1489861   -7.3441987    6.3155212   0.12030855 
 2720000   0.80201426  -0.35526975   -1.0238924    1.1490177   -7.3392136    6.3153212   0.12512527 
 2730000   0.80292484  -0.38039732   -1.0139785    1.1503222   -7.3307958    6.3168173   0.13634377 
 2740000   0.80065164  -0.36701275   -1.0275174    1.1470655    -7.345083    6.3175655   0.11954806 
 2750000   0.79906104  -0.34414903   -1.0286102    1.1447867   -7.3442144    6.3156041   0.11617647 
 2760000   0.80006089  -0.29086897    -1.024019    1.1462192    -7.345262    6.3212429   0.12220014 
 2770000   0.79878215  -0.34838771   -1.0201441    1.1443872   -7.3371178    6.3169737   0.12424308 
 2780000   0.80029457  -0.38481602   -1.0310442    1.1465539   -7.3452783    6.3142342    0.1155098 
 2790000    0.7958103  -0.35282082   -1.0231408    1.1401295    -7.340326    6.3171852   0.11698867 
 2800000   0.79499027  -0.38115273   -1.0245304    1.1389547   -7.3406589    6.3161285   0.11442424 
 2810000   0.80126456  -0.44077053   -1.0216122    1.1479436   -7.3409018    6.3192896   0.12633139 
 2820000   0.80342175  -0.31784296   -1.0194706    1.1510341   -7.3383483    6.3188777   0.13156355 
 2830000   0.80045796  -0.40801563   -1.0294494     1.146788   -7.3471398    6.3176903   0.11733863 
 2840000    0.8011739  -0.32543204   -1.0325768    1.1478137   -7.3489696    6.3163928   0.11523697 
 2850000   0.80263722  -0.28574328   -1.0253483    1.1499102   -7.3455491    6.3202007   0.12456185 
 2860000   0.79333911  -0.27870656   -1.0259354    1.1365891   -7.3479153      6.32198   0.11065373 
 2870000   0.79615731   -0.4101767   -1.0327271    1.1406266   -7.3484513    6.3157243   0.10789958 
 2880000   0.79570381  -0.39580308   -1.0238527    1.1399769   -7.3430846    6.3192319   0.11612427 
 2890000    0.7988161  -0.35634279   -1.0247784    1.1444358   -7.3439295    6.3191511   0.11965741 
 2900000   0.80154263  -0.34540604     -1.02589     1.148342   -7.3399837    6.3140937   0.12245201 
 2910000   0.79766538  -0.43653105   -1.0277228    1.1427872   -7.3410465    6.3133237    0.1150644 
 2920000   0.79668658  -0.32001192   -1.0222091    1.1413849   -7.3382904    6.3160813   0.11917579 
 2930000   0.79751842  -0.40824337   -1.0282501    1.1425767   -7.3451547    6.3169046   0.11432656 
 2940000   0.80038223  -0.38580565   -1.0223871    1.1466795   -7.3415119    6.3191248   0.12429243 
 2950000    0.7962896  -0.41610204   -1.0384844    1.1408162   -7.3545252    6.3160408   0.10233179 
 2960000   0.79579758  -0.32827083   -1.0260354    1.1401113   -7.3463733    6.3203379   0.11407589 
 2970000   0.80462431  -0.37469332   -1.0295982     1.152757   -7.3468713    6.3172732   0.12315883 
 2980000   0.80194294  -0.29292282    -1.026128    1.1489155   -7.3431221     6.316994   0.12278746 
 2990000   0.80215577   -0.2824318   -1.0156746    1.1492204   -7.3329604    6.3172858   0.13354578 
 3000000   0.79951534  -0.41093321   -1.0315134    1.1454376   -7.3494446    6.3179312   0.11392414 
 3010000   0.80635918  -0.36523244   -1.0230653    1.1552425   -7.3404813     6.317416   0.13217721 
 3020000   0.79461609  -0.39107588    -1.017487    1.1384186   -7.3391422    6.3216552   0.12093162 
 3030000   0.80830119  -0.41711936    -1.025449    1.1580248   -7.3439039    6.3184549   0.13257575 
 3040000   0.80354268  -0.38111211   -1.0350142    1.1512074    -7.349928    6.3149138    0.1161932 
 3050000   0.80197175  -0.38234901   -1.0300179    1.1489568   -7.3487821    6.3187642   0.11893891 
 3060000   0.80206503  -0.39235016   -1.0449186    1.1490904   -7.3573678    6.3124492   0.10417184 
 3070000   0.80147144   -0.3851499   -1.0207982      1.14824   -7.3390337    6.3182355   0.12744181 
 3080000   0.79457079  -0.49520223    -1.032671    1.1383537   -7.3488771    6.3162062   0.10568274 
 3090000   0.79741683  -0.34987852   -1.0288518    1.1424311   -7.3462621    6.3174103   0.11357933 
 3100000   0.79570262  -0.48375877   -1.0328435    1.1399752   -7.3526648    6.3198213   0.10713172 
 3110000   0.80076182  -0.40570146   -1.0278077    1.1472234   -7.3451662    6.3173586   0.11941567 
 3120000    0.8022337  -0.38597319    -1.036355    1.1493321   -7.3511175    6.3147624   0.11297702 
 3130000   0.79765538  -0.38479523   -1.0327719    1.1427729    -7.351733    6.3189611   0.11000097 
 3140000   0.80207421  -0.39640363   -1.0323637    1.1491036   -7.3462831    6.3139194   0.11673991 
 3150000   0.80475742  -0.45030215     -1.03078    1.1529477   -7.3479256    6.3171456    0.1221677 
 3160000   0.80398867    -0.398206    -1.037559    1.1518463   -7.3489171    6.3113581   0.11428739 
 3170000   0.79825868   -0.4609267    -1.033576    1.1436372   -7.3486245    6.3150485    0.1100612 
 3180000   0.79798008  -0.34834385    -1.032138    1.1432381   -7.3508476    6.3187097   0.11110008 
 3190000   0.79962727  -0.40812398   -1.0361171    1.1455979   -7.3525052    6.3163881   0.10948084 
 3200000   0.80495221  -0.48051005   -1.0369865    1.1532268   -7.3543291    6.3173426    0.1162403 
 3210000   0.79893212  -0.38427687   -1.0192386     1.144602   -7.3342478    6.3150092   0.12536347 
 3220000   0.81203974  -0.38246043    -1.023275    1.1633808   -7.3405936    6.3173186   0.14010579 
 3230000   0.79187234  -0.37968578   -1.0301343    1.1344877     -7.34891    6.3187757   0.10435345 
 3240000    0.7942197  -0.32475594   -1.0192301    1.1378507   -7.3372399    6.3180098   0.11862061 
 3250000   0.80124618  -0.35856239   -1.0169926    1.1479173   -7.3372186     6.320226   0.13092473 
 3260000   0.79562317   -0.4366065   -1.0245727    1.1398614   -7.3380625    6.3134898    0.1152887 
 3270000    0.8017695  -0.37978157   -1.0352917     1.148667   -7.3501839    6.3148922   0.11337536 
 3280000   0.79955767  -0.43592979   -1.0315064    1.1454982   -7.3491517    6.3176453    0.1139918 
 3290000   0.80025662  -0.35935219   -1.0245852    1.1464996   -7.3433977    6.3188126    0.1219144 
 3300000   0.79759314    -0.467825   -1.0291903    1.1426837   -7.3450007    6.3158104   0.11349337 
 3310000    0.7940705  -0.39576043   -1.0260878    1.1376369   -7.3460992    6.3200115   0.11154916 
 3320000   0.79611319  -0.45398334   -1.0207751    1.1405634   -7.3392107    6.3184356   0.11978835 
 3330000   0.79920151  -0.34203495   -1.0276671     1.144988   -7.3435551     6.315888    0.1173209 
 3340000   0.80075136  -0.45016473   -1.0351047    1.1472084   -7.3518661    6.3167614    0.1121037 
 3350000   0.79667848  -0.39669858   -1.0352248    1.1413733   -7.3530903    6.3178655    0.1061485 
 3360000   0.79533559  -0.37824665   -1.0364723    1.1394494   -7.3512479    6.3147756   0.10297715 
 3370000   0.80170159  -0.37988177   -1.0224396    1.1485697   -7.3394962    6.3170566   0.12613013 
 3380000   0.80254983  -0.32994796   -1.0297819     1.149785   -7.3471288    6.3173469   0.12000312 
 3390000   0.80091587  -0.35861335   -1.0222274    1.1474441   -7.3366688    6.3144413   0.12521662 
 3400000   0.80586883  -0.31950195   -1.0268376      1.15454   -7.3418114    6.3149738   0.12770243 
 3410000   0.79918615  -0.35552226   -1.0268287     1.144966    -7.342351    6.3155223   0.11813723 
 3420000   0.79902971   -0.3157906   -1.0299397    1.1447418   -7.3475592    6.3176195   0.11480212 
 3430000   0.79664637  -0.38744426   -1.0272381    1.1413273   -7.3419699    6.3147318   0.11408921 
 3440000   0.80034415  -0.40396557   -1.0200127     1.146625   -7.3363576    6.3163448   0.12661223 
 3450000   0.80125299  -0.31353023   -1.0141219     1.147927   -7.3304807    6.3163588   0.13380518 
 3460000   0.80168178  -0.26330295   -1.0219883    1.1485413   -7.3353092    6.3133209   0.12655302 
 3470000   0.79271311  -0.40704302   -1.0290928    1.1356923   -7.3448445    6.3157517   0.10659943 
 3480000   0.79683561  -0.42013075   -1.0322608    1.1415984    -7.352565    6.3203041   0.10933759 
 3490000   0.79597684  -0.40160278   -1.0281298    1.1403681   -7.3463498      6.31822   0.11223831 
 3500000   0.79987436  -0.33059959   -1.0268925    1.1459519   -7.3409231    6.3140306   0.11905941 
 3510000   0.79904455    -0.337435   -1.0199319    1.1447631   -7.3393082    6.3193764   0.12483122 
 3520000   0.80500288  -0.43024017   -1.0260338    1.1532994   -7.3459294    6.3198956   0.12726559 
 3530000   0.79520886  -0.41182406   -1.0310732    1.1392678   -7.3483348    6.3172616   0.10819461 
 3540000   0.80992647  -0.34469898   -1.0196024    1.1603532   -7.3399573    6.3203549   0.14075084 
 3550000   0.79208432  -0.42461011   -1.0289789    1.1347914   -7.3459512    6.3169723    0.1058125 
 3560000   0.79515584  -0.42906704   -1.0248445    1.1391919   -7.3449037    6.3200592   0.11434738 
 3570000   0.80424016  -0.39065239   -1.0289454    1.1522067    -7.345844    6.3168987    0.1232613 
 3580000   0.79801991  -0.33230367   -1.0320384    1.1432951   -7.3492256    6.3171872    0.1112567 
 3590000   0.80553698  -0.40591948   -1.0234756    1.1540646   -7.3383805     6.314905     0.130589 
 3600000    0.7924921  -0.48118947   -1.0318886    1.1353756   -7.3461744    6.3142858   0.10348698 
 3610000   0.80241754   -0.3369654   -1.0317329    1.1495954   -7.3506805    6.3189475    0.1178625 
 3620000   0.79384007   -0.3190326   -1.0127635    1.1373068   -7.3296424    6.3168789   0.12454328 
 3630000   0.80121046  -0.36322311   -1.0217866    1.1478661   -7.3410197    6.3192331    0.1260795 
 3640000   0.80112476   -0.3640582   -1.0364617    1.1477433   -7.3518987     6.315437    0.1112816 
 3650000   0.80311726  -0.35019054   -1.0217494    1.1505979   -7.3387295    6.3169801   0.12884855 
 3660000   0.79644417  -0.36581752   -1.0283777    1.1410376   -7.3431411    6.3147635   0.11265996 
 3670000   0.80379251  -0.34298874   -1.0184174    1.1515653   -7.3374726    6.3190553   0.13314797 
 3680000   0.80169514  -0.38602998   -1.0282654    1.1485605   -7.3499222    6.3216567   0.12029504 
 3690000   0.79319988  -0.38163313   -1.0304117    1.1363896   -7.3500251    6.3196135   0.10597798 
 3700000   0.79904867  -0.37926618   -1.0288008     1.144769   -7.3456308      6.31683   0.11596817 
 3710000    0.7987159  -0.39626557   -1.0209464    1.1442922   -7.3391316    6.3181852   0.12334583 
 3720000   0.79853853  -0.40432661   -1.0266236    1.1440381   -7.3424109    6.3157874   0.11741455 
 3730000   0.80351959  -0.38916338   -1.0214987    1.1511743   -7.3362248    6.3147261   0.12967559 
 3740000   0.80580336    -0.371975   -1.0275921    1.1544462    -7.344527    6.3169349   0.12685405 
 3750000   0.80032207  -0.39720735   -1.0243327    1.1465933   -7.3425846    6.3182519   0.12226066 
 3760000   0.80453405  -0.38497351   -1.0300257    1.1526277   -7.3443559    6.3143302   0.12260199 
 3770000   0.79835046  -0.36793627   -1.0216419    1.1437687   -7.3391571    6.3175152   0.12212678 
 3780000   0.80555903   -0.3952804   -1.0285674    1.1540961   -7.3433704     6.314803   0.12552878 
 3790000   0.80597904  -0.31650502   -1.0266566    1.1546979   -7.3416252    6.3149686   0.12804126 
 3800000   0.79239043  -0.42175415   -1.0387936      1.13523   -7.3544979    6.3157043  0.096436327 
 3810000   0.78969924  -0.38095873   -1.0194341    1.1313744   -7.3384297    6.3189956   0.11194032 
 3820000   0.80179807  -0.38531968    -1.023361     1.148708   -7.3416252    6.3182642   0.12534696 
 3830000   0.80532332  -0.42036049   -1.0326452    1.1537585   -7.3495878    6.3169427   0.12111329 
 3840000   0.79837178   -0.3660605   -1.0360959    1.1437992   -7.3525237    6.3164278   0.10770328 
 3850000   0.80275584  -0.33467074   -1.0212966    1.1500801   -7.3392465    6.3179499   0.12878351 
 3860000    0.8007698  -0.32403042   -1.0232976    1.1472348   -7.3399863    6.3166887   0.12393719 
 3870000   0.79860535  -0.31281647   -1.0322268    1.1441339    -7.350405    6.3181782   0.11190703 
 3880000   0.79167244  -0.38546782   -1.0343161    1.1342013   -7.3506292    6.3163131  0.099885236 
 3890000   0.79912645  -0.32647345    -1.029361    1.1448804    -7.344522    6.3151611   0.11551945 
 3900000   0.79729002  -0.36759292   -1.0319476    1.1422494    -7.348309    6.3163614   0.11030181 
 3910000   0.80301081  -0.48941504   -1.0327157    1.1504454   -7.3477296    6.3150139   0.11772976 
 3920000   0.79638791  -0.39444648   -1.0329206     1.140957   -7.3488945    6.3159739   0.10803643 
 3930000   0.80501485  -0.40950894    -1.028553    1.1533165   -7.3466268    6.3180738   0.12476357 
 3940000   0.79767977  -0.38040161   -1.0233145    1.1428078   -7.3420642    6.3187497   0.11949332 
 3950000    0.7989468  -0.36881815   -1.0348659     1.144623   -7.3506883    6.3158224   0.10975713 
 3960000   0.80412272  -0.35319817   -1.0257927    1.1520384   -7.3444384    6.3186457   0.12624566 
 3970000   0.80023177  -0.48570296   -1.0361259     1.146464   -7.3534945    6.3173686   0.11033806 
 3980000   0.79194746  -0.35957445   -1.0244308    1.1345953   -7.3416099    6.3171791   0.11016456 
 3990000   0.80319978  -0.37612506   -1.0261375    1.1507161   -7.3451659    6.3190285   0.12457865 
 4000000   0.80653555  -0.36056924   -1.0245254    1.1554952   -7.3391213    6.3145959   0.13096975 
 4010000   0.80677703  -0.33732484   -1.0290592    1.1558411   -7.3443802     6.315321   0.12678197 
 4020000   0.80444643  -0.35568536   -1.0326677    1.1525022   -7.3467748     6.314107   0.11983445 
 4030000   0.79830441  -0.38414139   -1.0226016    1.1437027   -7.3416019    6.3190002   0.12110106 
 4040000   0.79929101  -0.33357097   -1.0331889    1.1451162   -7.3490902    6.3159013   0.11192731 
 4050000   0.79654853  -0.38661138   -1.0307072    1.1411871   -7.3492011    6.3184939   0.11047997 
 4060000   0.79717416  -0.29638067   -1.0208966    1.1420834   -7.3402668    6.3193702    0.1211868 
 4070000   0.79577691  -0.34740937   -1.0326665    1.1400817   -7.3498611    6.3171946   0.10741518 
 4080000   0.80013303  -0.40779597   -1.0190522    1.1463225   -7.3391379    6.3200856   0.12727027 
 4090000   0.79638937  -0.49759155   -1.0236372    1.1409591    -7.340557    6.3169197   0.11732187 
 4100000   0.80301219  -0.35255249   -1.0318687    1.1504474   -7.3474147     6.315546   0.11857871 
 4110000   0.80019098  -0.27484651   -1.0247206    1.1464055    -7.342811    6.3180904   0.12168497 
 4120000   0.80176866  -0.39682272   -1.0355253    1.1486658   -7.3557748    6.3202494   0.11314049 
 4130000   0.80426282  -0.31884837   -1.0253133    1.1522391   -7.3433863     6.318073   0.12692582 
 4140000     0.798985  -0.36594256   -1.0300816    1.1446778   -7.3469912    6.3169095   0.11459614 
 4150000   0.80255983  -0.33841831   -1.0201799    1.1497993   -7.3394657    6.3192858   0.12961941 
 4160000   0.79839208  -0.33101095     -1.01886    1.1438283   -7.3352012    6.3163411   0.12496827 
 4170000   0.80404562  -0.35705233   -1.0218941     1.151928   -7.3380164    6.3161223   0.13003382 
 4180000   0.80605551  -0.40344993   -1.0331825    1.1548074   -7.3510579    6.3178754   0.12162493 
 4190000   0.79634896  -0.37087094   -1.0319597    1.1409012   -7.3488645    6.3169048    0.1089415 
 4200000   0.79992845   -0.3964683   -1.0334574    1.1460294   -7.3487128    6.3152554   0.11257197 
 4210000   0.79741902  -0.35536629   -1.0312266    1.1424342   -7.3507521    6.3195255   0.11120765 
 4220000   0.79994978  -0.39176751   -1.0298033      1.14606   -7.3453235    6.3155202   0.11625665 
 4230000   0.79945036  -0.37379886    -1.028963    1.1453445   -7.3443829    6.3154199   0.11638151 
 4240000   0.80321113  -0.39896095   -1.0297523    1.1507324   -7.3481173     6.318365   0.12098013 
 4250000   0.80070041  -0.47685783   -1.0402378    1.1471354   -7.3533092    6.3130714   0.10689758 
 4260000   0.79814476  -0.36953886   -1.0372484     1.143474   -7.3546357    6.3173873   0.10622557 
 4270000   0.79224418  -0.40908651   -1.0391597    1.1350204   -7.3554766     6.316317  0.095860767 
 4280000   0.80355194  -0.37033963   -1.0308267    1.1512207   -7.3487566    6.3179299   0.12039398 
 4290000   0.79995085  -0.30409578   -1.0197895    1.1460615   -7.3385712    6.3187817   0.12627205 
 4300000    0.7946347  -0.36661947   -1.0348701    1.1384452   -7.3503126    6.3154425   0.10357512 
 4310000   0.80254768   -0.3591413   -1.0287097    1.1497819   -7.3464314    6.3177217   0.12107218 
 4320000   0.80264068  -0.30608776   -1.0281875    1.1499151   -7.3410117    6.3128242   0.12172766 
 4330000    0.8051615  -0.37524418   -1.0291285    1.1535266   -7.3482601    6.3191316   0.12439815 
 4340000   0.79305118  -0.37641013   -1.0263449    1.1361766    -7.342585    6.3162401   0.10983168 
 4350000   0.79271533  -0.36885575    -1.037601    1.1356954    -7.354711    6.3171099  0.098094393 
 4360000   0.79471842  -0.29768436   -1.0673324    1.1385652   -7.3819846    6.3146522  0.071232787 
 4370000   0.80873306  -0.21508302   -1.1060592    1.1586435   -7.4259128    6.3198536  0.052584313 
 4380000   0.79488241  -0.21404702   -1.0977036    1.1388001   -7.4161693    6.3184657  0.041096555 
 4390000   0.79763681  -0.16494352   -1.1374383    1.1427463   -7.4503365    6.3128982 0.0053079713 
 4400000   0.79530252  -0.15037788   -1.1387374     1.139402   -7.4575121    6.3187747 0.00066461459 
 4410000   0.79921779  -0.23088286   -1.1407853    1.1450113   -7.4531535    6.3123681  0.004225938 
 4420000   0.80098995  -0.28173354   -1.1456416    1.1475502   -7.4605854    6.3149438 0.0019086214 
 4430000   0.80856889   -0.1873347   -1.1306915    1.1584083    -7.445205    6.3145134  0.027716738 
 4440000   0.80629211  -0.16837134   -1.1306902    1.1551464   -7.4465042     6.315814  0.024456219 
 4450000   0.79552663  -0.12180115   -1.1433668    1.1397231   -7.4649086    6.3215418 -0.0036436651 
 4460000   0.79511054  -0.21683662   -1.1389577     1.139127   -7.4543428    6.3153851 0.00016922311 
 4470000    0.7980575  -0.22163561   -1.1597236     1.143349   -7.4720605    6.3123369 -0.016374584 
 4480000   0.80289329  -0.18922713   -1.1510847     1.150277   -7.4678628    6.3167781 -0.00080766446 
 4490000   0.80877066  -0.15113558   -1.1361503    1.1586973   -7.4576897    6.3215394  0.022547037 
 4500000   0.80062236  -0.11178105   -1.1391687    1.1470236   -7.4572264    6.3180576 0.0078548335 
 4510000   0.80286169  -0.10897446   -1.1518615    1.1502318   -7.4702385     6.318377 -0.0016296825 
 4520000   0.80125487 -0.081211723   -1.1493686    1.1479297   -7.4667696     6.317401 -0.0014388552 
 4530000   0.79999764  -0.18847246   -1.1410612    1.1461285   -7.4576436    6.3165824  0.005067317 
 4540000   0.80249397  -0.10654791   -1.1253658     1.149705   -7.4418436    6.3164778  0.024339115 
 4550000   0.80433112  -0.19665882   -1.1485262     1.152337   -7.4662414    6.3177152 0.0038107454 
 4560000   0.79640541   -0.2776775   -1.1221359    1.1409821   -7.4391717    6.3170359  0.018846203 
 4570000    0.8004775  -0.17229141   -1.1427145     1.146816   -7.4568645      6.31415  0.004101485 
 4580000   0.79731402   -0.1640954     -1.14878    1.1422838   -7.4621331    6.3133531 -0.0064962061 
 4590000    0.8024735  -0.14355139   -1.1466817    1.1496756    -7.464287    6.3176053  0.002993926 
 4600000   0.80378921 -0.085092417   -1.1468882    1.1515606    -7.465961    6.3190727 0.0046723701 
 4610000   0.80458041  -0.14007724     -1.15182    1.1526941   -7.4706288    6.3188088 0.00087412606 
 4620000   0.80388917  -0.10681509    -1.145882    1.1517038   -7.4649522    6.3190703 0.0058218467 
 4630000    0.7981451  -0.22731945   -1.1460412    1.1434745   -7.4623712      6.31633 -0.0025667317 
 4640000   0.80407711  -0.15547695    -1.142956    1.1519731   -7.4608281    6.3178721  0.009017043 
 4650000   0.79872852  -0.13589537   -1.1418878    1.1443103    -7.459438    6.3175502 0.0024224829 
 4660000   0.80481272  -0.17297684   -1.1408696    1.1530269   -7.4608694    6.3199999  0.012157391 
 4670000   0.79947315  -0.12445003   -1.1536442    1.1453771   -7.4725431     6.318899 -0.0082670193 
 4680000   0.79775194  -0.20863938   -1.1484303    1.1429112   -7.4662325    6.3178022 -0.0055190412 
 4690000   0.80019794  -0.07616745   -1.1426179    1.1464155   -7.4570581    6.3144402 0.0037976507 
 4700000   0.79531025  -0.10704625   -1.1382975    1.1394131   -7.4556971    6.3173997 0.0011156311 
 4710000   0.79649511 -0.071651424   -1.1482281    1.1411106   -7.4624975    6.3142694 -0.0071174674 
 4720000   0.79818407  -0.18273521   -1.1431233    1.1435303   -7.4583943    6.3152711 0.00040705901 
 4730000     0.799279   -0.1594531   -1.1457478     1.145099   -7.4625784    6.3168306 -0.00064881896 
 4740000   0.79589585  -0.17715032   -1.1356686    1.1402521   -7.4503328    6.3146642 0.0045835017 
 4750000   0.80226606  -0.15031614   -1.1340769    1.1493784   -7.4507416    6.3166647  0.015301542 
 4760000    0.8007584  -0.18350998   -1.1657954    1.1472185    -7.481168    6.3153726   -0.0185769 
 4770000   0.80399303  -0.17543301   -1.1519738    1.1518526    -7.469084    6.3171102 -0.00012123859 
 4780000   0.80136234   -0.1849742    -1.139074    1.1480837   -7.4542743    6.3152003 0.0090097255 
 4790000   0.79981265  -0.19095377   -1.1642118    1.1458635   -7.4802986    6.3160868  -0.01834828 
 4800000   0.80373623  -0.15858474   -1.1550471    1.1514847    -7.471798     6.316751 -0.0035623696 
 4810000    0.7980992  -0.13309718   -1.1470961    1.1434087    -7.469424    6.3223279 -0.0036874185 
 4820000   0.79995667  -0.12296695   -1.1486868    1.1460698   -7.4653389    6.3166521 -0.0026169091 
 4830000   0.79507104  -0.18691011   -1.1461981    1.1390704   -7.4644188    6.3182207 -0.0071277313 
 4840000   0.79390502   -0.2071951   -1.1420804    1.1373999   -7.4606044     6.318524 -0.0046804921 
 4850000   0.79334007  -0.20351485   -1.1448411    1.1365905   -7.4636407    6.3187996 -0.0082506062 
 4860000   0.80081348   -0.1246504   -1.1440891    1.1472974   -7.4654868    6.3213977 0.0032082883 
 4870000   0.80509355  -0.15170106    -1.143713    1.1534293   -7.4643149     6.320602 0.0097163201 
 4880000   0.80317705  -0.16099031    -1.151612    1.1506836   -7.4676768    6.3160649 -0.00092842015 
 4890000   0.80237252  -0.14145127   -1.1640783     1.149531    -7.483246    6.3191678 -0.014547311 
 4900000   0.79696936   -0.1294997    -1.147884      1.14179   -7.4628705    6.3149865 -0.0060939796 
 4910000   0.80310132  -0.23817332    -1.139725    1.1505751   -7.4586515    6.3189265  0.010850046 
 4920000   0.79491259  -0.13041061   -1.1482084    1.1388434   -7.4657343    6.3175259 -0.0093650349 
 4930000     0.810145  -0.18116571   -1.1436683    1.1606663    -7.460098    6.3164296  0.016997975 
 4940000   0.79992021  -0.12148302   -1.1316276    1.1460176   -7.4503835    6.3187558  0.014389959 
 4950000   0.80669069 -0.057676188   -1.1458499    1.1557174   -7.4631057    6.3172558 0.0098674975 
 4960000   0.79580057   -0.1645363   -1.1575924    1.1401156   -7.4766843    6.3190919 -0.017476814 
 4970000   0.80280865  -0.19742755   -1.1450679    1.1501558   -7.4607399     6.315672 0.0050878515 
 4980000   0.80368293    -0.232064   -1.1566443    1.1514083   -7.4722682     6.315624 -0.0052359272 
 4990000   0.79567225   -0.1708945   -1.1516009    1.1399317   -7.4660817    6.3144808 -0.011669215 
 5000000   0.80644117  -0.11449495   -1.1558135      1.15536   -7.4723376    6.3165241 -0.00045352628 
 5010000   0.80481408  -0.10016884   -1.1370406    1.1530289   -7.4527321    6.3156915  0.015988293 
 5020000   0.80043117  -0.14326178   -1.1446042    1.1467497    -7.462069    6.3174648 0.0021454351 
 5030000   0.79957086  -0.16028661   -1.1596173    1.1455171   -7.4774951    6.3178778 -0.014100223 
 5040000   0.80227064 -0.076711553   -1.1447904     1.149385   -7.4644596    6.3196692 0.0045946227 
 5050000   0.79413597 -0.090942355   -1.1512292    1.1377307   -7.4669408    6.3157117 -0.013498424 
 5060000   0.79785658  -0.17424442   -1.1570411    1.1430611   -7.4761623    6.3191212 -0.013979952 
 5070000    0.8010748  -0.22536207   -1.1334948    1.1476717   -7.4499456    6.3164507  0.014176915 
 5080000   0.79585639   -0.1733036   -1.1391903    1.1401955   -7.4540409    6.3148506 0.0010052149 
 5090000   0.79678035  -0.19492871   -1.1411593    1.1415192   -7.4561777    6.3150185 0.00035997417 
 5100000   0.79703654  -0.23463249   -1.1497818    1.1418863   -7.4674727     6.317691 -0.0078954984 
 5110000   0.79657794 -0.067821634   -1.1493964    1.1412293   -7.4694903    6.3200939 -0.008167153 
 5120000   0.80092525  -0.15465614   -1.1440248    1.1474575   -7.4603205    6.3162957 0.0034326961 
 5130000   0.80315581  -0.14192439   -1.1517077    1.1506531   -7.4706175    6.3189098  -0.00105454 
 5140000   0.80179897  -0.11732035   -1.1515904    1.1487092   -7.4686024     6.317012 -0.0028811869 
 5150000    0.8017074  -0.22444259   -1.1503191    1.1485781   -7.4674259    6.3171068 -0.0017410131 
 5160000   0.79718308  -0.12068487   -1.1459876    1.1420962   -7.4687011    6.3227135 -0.0038914051 
 5170000    0.7999387  -0.15311814   -1.1415388    1.1460441   -7.4599436    6.3184049 0.0045053399 
 5180000   0.80263072  -0.04334474   -1.1480759    1.1499009   -7.4650721    6.3169962 0.0018249941 
 5190000   0.79785003 -0.092943044   -1.1298419    1.1430517   -7.4482256    6.3183836  0.013209816 
 5200000   0.80888677   -0.2457926   -1.1432019    1.1588637   -7.4591702    6.3159683  0.015661779 
 5210000   0.80093982  -0.13353611   -1.1437556    1.1474784   -7.4646122    6.3208566 0.0037227399 
 5220000   0.79846958  -0.15735591   -1.1426716    1.1439393   -7.4612013    6.3185297 0.0012677678 
 5230000   0.80094767  -0.09756369   -1.1557256    1.1474896   -7.4736844    6.3179588 -0.0082359639 
 5240000      0.80121  -0.12966717   -1.1407205    1.1478654   -7.4559008    6.3151803 0.0071449627 
 5250000   0.80497038  -0.21316922   -1.1363984    1.1532528   -7.4510385    6.3146401   0.01685442 
 5260000   0.80485226   -0.2115781    -1.152231    1.1530836   -7.4672421    6.3150112 0.00085259644 
 5270000   0.80763828  -0.14654588   -1.1400679     1.157075   -7.4565775    6.3165096  0.017007117 
 5280000   0.79875485  -0.20561028   -1.1455778     1.144348   -7.4623255    6.3167477 -0.0012297424 
 5290000   0.78889936  -0.14596889   -1.1476718    1.1302284   -7.4668083    6.3191365 -0.017443393 
 5300000   0.79834983  -0.19726072   -1.1469275    1.1437678   -7.4653405     6.318413 -0.0031596871 
 5310000   0.80112612  -0.24107158   -1.1389376    1.1477453   -7.4567053    6.3177677 0.0088076536 
 5320000   0.79290082 -0.098222362   -1.1460188    1.1359612   -7.4646871    6.3186683 -0.010057606 
 5330000    0.8003654  -0.16619551   -1.1434533    1.1466554   -7.4596219    6.3161686 0.0032020868 
 5340000   0.80280791  -0.15263323   -1.1374508    1.1501547   -7.4548575    6.3174068  0.012703958 
 5350000   0.79989788  -0.16864514   -1.1320572    1.1459856   -7.4509209    6.3188637  0.013928409 
 5360000   0.79892249  -0.19145746   -1.1380032    1.1445882   -7.4531798    6.3151766 0.0065849675 
 5370000     0.793315  -0.17755685   -1.1414304    1.1365546   -7.4574561    6.3160257 -0.0048758317 
 5380000   0.80160955  -0.14192647   -1.1431184    1.1484379   -7.4587808    6.3156624 0.0053195122 
 5390000   0.79882208  -0.16388656   -1.1540223    1.1444444   -7.4738172    6.3197949 -0.0095779232 
 5400000   0.80259123 -0.095315141   -1.1449052    1.1498443    -7.463763    6.3188578  0.004939094 
 5410000   0.80191494  -0.15782187   -1.1427776    1.1488754   -7.4603418    6.3175642 0.0060977618 
 5420000   0.80192236  -0.17215924   -1.1399306     1.148886   -7.4612728    6.3213423 0.0089554733 
 5430000   0.80410748  -0.22548324   -1.1318978    1.1520166   -7.4534728    6.3215749  0.020118765 
 5440000   0.79499826   -0.1494938   -1.1419712    1.1389661   -7.4599914    6.3180203 -0.0030050425 
 5450000   0.80185564  -0.30583813   -1.1306463    1.1487904   -7.4495165    6.3188702  0.018144091 
 5460000   0.79560096  -0.14098319   -1.1440334    1.1398296   -7.4610284     6.316995 -0.0042038276 
 5470000   0.80801682  -0.10808418   -1.1406065    1.1576173   -7.4563117    6.3157052  0.017010823 
 5480000   0.80103029  -0.18415355   -1.1432563     1.147608   -7.4608796    6.3176233 0.0043516893 
 5490000   0.79250756  -0.20390118    -1.147757    1.1353978   -7.4668434    6.3190864 -0.012359233 
 5500000   0.79646651  -0.17582956   -1.1529962    1.1410696    -7.469975    6.3169788 -0.011926604 
 5510000   0.80068001 -0.096322555   -1.1502459    1.1471062   -7.4668105    6.3165646 -0.0031397596 
 5520000   0.79105135  -0.10997925    -1.146176    1.1333115   -7.4652299    6.3190539 -0.012864516 
 5530000   0.80257186   -0.1508956   -1.1487284    1.1498165   -7.4649185    6.3161901 0.0010881624 
 5540000   0.80359466  -0.13741764   -1.1442702    1.1512819   -7.4591548    6.3148846 0.0070116723 
 5550000    0.7997154  -0.18298808   -1.1339318    1.1457242   -7.4534296    6.3194978  0.011792375 
 5560000   0.79767083  -0.10458483   -1.1447404     1.142795   -7.4646365     6.319896 -0.0019454307 
 5570000   0.79960006  -0.19923059   -1.1462785    1.1455589   -7.4634678    6.3171893 -0.00071957608 
 5580000    0.7915086  -0.23889357   -1.1459652    1.1339666   -7.4663706    6.3204054 -0.011998603 
 5590000   0.80645755  -0.15798274   -1.1534852    1.1553834   -7.4685432     6.315058 0.0018982466 
 5600000   0.79729299  -0.18625015   -1.1577089    1.1422537   -7.4744142    6.3167053 -0.015455189 
 5610000   0.80442236  -0.18935589   -1.1608506    1.1524677   -7.4762398    6.3153893 -0.0083828826 
 5620000   0.79564911  -0.19166977    -1.148771    1.1398986   -7.4629311    6.3141601 -0.0088724212 
 5630000   0.80460603 -0.094527803   -1.1550655    1.1527308   -7.4732565     6.318191 -0.002334641 
 5640000   0.80119275  -0.19859261   -1.1547244    1.1478407   -7.4719685    6.3172442 -0.0068836223 
 5650000   0.79394704  -0.13536215   -1.1444779    1.1374601   -7.4619451    6.3174672 -0.0070178323 
 5660000   0.79707298  -0.18854971   -1.1353841    1.1419385   -7.4553789    6.3199948 0.0065543528 
 5670000   0.80030993  -0.17886917    -1.156835     1.146576   -7.4756841    6.3188491    -0.010259 
 5680000   0.79654647  -0.16558137   -1.1481021    1.1411842   -7.4636721      6.31557 -0.006917969 
 5690000   0.80027433  -0.15073765   -1.1516308    1.1465249    -7.467775    6.3161441 -0.005105898 
 5700000    0.8058672  -0.18858881    -1.153582    1.1545377   -7.4692784    6.3156964 0.00095569698 
 5710000   0.79315475    -0.184436   -1.1465186     1.136325   -7.4608888    6.3143702 -0.010193661 
 5720000   0.79860959  -0.24351089   -1.1376419    1.1441399   -7.4576495    6.3200076 0.0064980368 
 5730000   0.79496019  -0.15231811   -1.1557326    1.1389116   -7.4740439    6.3183113 -0.016821021 
 5740000   0.80279026  -0.15639655   -1.1504514    1.1501294   -7.4726723     6.322221 -0.0003219543 
 5750000   0.79527569  -0.12802446   -1.1637859    1.1393636   -7.4783303    6.3145444 -0.024422338 
 5760000   0.79092501  -0.16102617   -1.1476973    1.1331305   -7.4624596    6.3147624 -0.014566767 
 5770000   0.79300761  -0.19946655   -1.1583196    1.1361142   -7.4768076     6.318488 -0.022205466 
 5780000    0.7989491  -0.10487025   -1.1520699    1.1446263    -7.470149     6.318079 -0.0074436028 
 5790000   0.80145027  -0.15002931   -1.1622209    1.1482097   -7.4793672    6.3171463 -0.014011265 
 5800000   0.79372051  -0.20047918   -1.1401547    1.1371355   -7.4554304    6.3152757 -0.0030192187 
 5810000   0.80304846  -0.25726752   -1.1356751    1.1504994   -7.4549766    6.3193015   0.01482424 
 5820000   0.80107009  -0.18307493   -1.1500033     1.147665   -7.4693687    6.3193653 -0.0023383451 
 5830000   0.80430751  -0.17526219   -1.1343878    1.1523031   -7.4545274    6.3201396  0.017915308 
 5840000   0.79799032  -0.21041402   -1.1330205    1.1432527   -7.4560405      6.32302  0.010232226 
 5850000   0.79862022  -0.12157553   -1.1536118    1.1441552    -7.470097    6.3164852 -0.0094566677 
 5860000   0.80093899  -0.20771578   -1.1249891    1.1474772   -7.4435471    6.3185581  0.022488097 
 5870000   0.79870203   -0.2578926   -1.1373894    1.1442724   -7.4525637    6.3151743 0.0068830195 
 5880000   0.80415414   -0.1956524   -1.1380978    1.1520834   -7.4548899    6.3167922  0.013985667 
 5890000   0.79895075   -0.1615572   -1.1394656    1.1446287   -7.4590329    6.3195672 0.0051630593 
 5900000   0.79917604  -0.28023415   -1.1390552    1.1449515   -7.4563903    6.3173351 0.0058963138 
 5910000   0.80202826  -0.13678126   -1.1461272    1.1490377   -7.4621903    6.3160631 0.0029105205 
 5920000    0.7986526  -0.19675677   -1.1570863    1.1442016   -7.4731645    6.3160782 -0.012884742 
 5930000    0.7925536  -0.16500463    -1.137005    1.1354637   -7.4515841    6.3145792 -0.0015412248 
 5940000   0.80123598  -0.11070749   -1.1336433    1.1479027   -7.4506731    6.3170298  0.014259357 
 5950000   0.79936002   -0.1944593   -1.1518515     1.145215   -7.4688937    6.3170421 -0.0066365032 
 5960000   0.80030602  -0.14644009   -1.1487783    1.1465703   -7.4654859    6.3167075 -0.002207964 
 5970000   0.80019046  -0.12645122   -1.1485298    1.1464048   -7.4632592    6.3147294 -0.002125011 
 5980000   0.79869177  -0.14426107   -1.1429477    1.1442577   -7.4609483    6.3180006  0.001309937 
 5990000   0.79828646  -0.12664565   -1.1425615     1.143677   -7.4590241    6.3164626 0.0011154738 
 6000000   0.80402329  -0.17563261   -1.1397763     1.151896   -7.4566969    6.3169206  0.012119601 
Loop time of 93300.7 on 216 procs for 6000000 steps with 28425 atoms

Performance: 27781.137 tau/day, 64.308 timesteps/s
99.7% CPU use with 216 MPI tasks x 1 OpenMP threads

MPI task timing breakdown:
Section |  min time  |  avg time  |  max time  |%varavg| %total
---------------------------------------------------------------
Pair    | 1141.2     | 1352.5     | 1588       | 248.2 |  1.45
Bond    | 16.457     | 20.088     | 23.621     |  27.9 |  0.02
Kspace  | 85082      | 85394      | 85636      |  35.4 | 91.53
Neigh   | 871.99     | 909.96     | 945.71     |  51.2 |  0.98
Comm    | 1434       | 1668.6     | 1905.1     | 285.9 |  1.79
Output  | 2.7781     | 2.8343     | 2.8445     |   0.3 |  0.00
Modify  | 3300.7     | 3439.8     | 3605       | 128.4 |  3.69
Other   |            | 513.3      |            |       |  0.55

Nlocal:    131.597 ave 226 max 9 min
Histogram: 3 3 0 5 10 152 26 8 6 3
Nghost:    965.764 ave 1217 max 435 min
Histogram: 2 3 1 6 7 13 82 74 21 7
Neighs:    5003.78 ave 11671 max 139 min
Histogram: 6 1 8 87 86 12 3 6 5 2

Total # of neighbors = 1080816
Ave neighs/atom = 38.0234
Ave special neighs/atom = 0.612137
Neighbor list builds = 806140
Dangerous builds = 0
System init for write_restart ...
PPPM initialization ...
  using 12-bit tables for long-range coulomb (src/kspace.cpp:332)
  G vector (1/distance) = 1.23028
  grid = 120 120 120
  stencil order = 5
  estimated absolute RMS force accuracy = 8.74042e-05
  estimated relative force accuracy = 8.74042e-05
  using double precision FFTW3
  3d grid and FFT values/proc = 19683 8400
WARNING: Neighbor exclusions used with KSpace solver may give inconsistent Coulombic energies (src/neighbor.cpp:486)
Neighbor list info ...
  update every 1 steps, delay 0 steps, check yes
  max neighbors/atom: 2000, page size: 100000
  master list distance cutoff = 2.8
  ghost atom cutoff = 2.8
  binsize = 1.4, bins = 24 24 24
  7 neighbor lists, perpetual/occasional/extra = 2 5 0
  (1) pair lj/cut, perpetual
      attributes: half, newton on
      pair build: half/bin/newton
      stencil: half/bin/3d/newton
      bin: standard
  (2) pair coul/long, perpetual, skip from (1)
      attributes: half, newton on
      pair build: skip
      stencil: none
      bin: none
  (3) compute rdf, occasional, copy from (1)
      attributes: half, newton on
      pair build: copy
      stencil: none
      bin: none
  (4) compute rdf, occasional, copy from (1)
      attributes: half, newton on
      pair build: copy
      stencil: none
      bin: none
  (5) compute rdf, occasional, copy from (1)
      attributes: half, newton on
      pair build: copy
      stencil: none
      bin: none
  (6) compute rdf, occasional, copy from (1)
      attributes: half, newton on
      pair build: copy
      stencil: none
      bin: none
  (7) compute rdf, occasional, copy from (1)
      attributes: half, newton on
      pair build: copy
      stencil: none
      bin: none
PPPM initialization ...
  using 12-bit tables for long-range coulomb (src/kspace.cpp:332)
  G vector (1/distance) = 1.23028
  grid = 120 120 120
  stencil order = 5
  estimated absolute RMS force accuracy = 8.74042e-05
  estimated relative force accuracy = 8.74042e-05
  using double precision FFTW3
  3d grid and FFT values/proc = 19683 8400
WARNING: Neighbor exclusions used with KSpace solver may give inconsistent Coulombic energies (src/neighbor.cpp:486)
Neighbor list info ...
  update every 1 steps, delay 0 steps, check yes
  max neighbors/atom: 2000, page size: 100000
  master list distance cutoff = 2.8
  ghost atom cutoff = 2.8
  binsize = 1.4, bins = 24 24 24
  7 neighbor lists, perpetual/occasional/extra = 2 5 0
  (1) pair lj/cut, perpetual
      attributes: half, newton on
      pair build: half/bin/newton
      stencil: half/bin/3d/newton
      bin: standard
  (2) pair coul/long, perpetual, skip from (1)
      attributes: half, newton on
      pair build: skip
      stencil: none
      bin: none
  (3) compute rdf, occasional, copy from (1)
      attributes: half, newton on
      pair build: copy
      stencil: none
      bin: none
  (4) compute rdf, occasional, copy from (1)
      attributes: half, newton on
      pair build: copy
      stencil: none
      bin: none
  (5) compute rdf, occasional, copy from (1)
      attributes: half, newton on
      pair build: copy
      stencil: none
      bin: none
  (6) compute rdf, occasional, copy from (1)
      attributes: half, newton on
      pair build: copy
      stencil: none
      bin: none
  (7) compute rdf, occasional, copy from (1)
      attributes: half, newton on
      pair build: copy
      stencil: none
      bin: none
Setting up Verlet run ...
  Unit style    : lj
  Current step  : 6000000
  Time step     : 0.005
Per MPI rank memory allocation (min/avg/max) = 19.58 | 20.03 | 20.64 Mbytes
Step Lx Ly Lz Press Pxx Pyy Pzz PotEng Temp 
 6000000    32.698194    32.698194    32.698194  -0.12360097   -0.1696104   -0.5865972   0.38540468   -1.1397763   0.80402329 
 6000010    33.352158    32.376037    32.376037 -0.091676152   -1.6278214   0.70016972   0.65262327   -1.1206931    0.8124153 
 6000020    34.006122    32.063217    32.063217 0.0047124173   -1.7023253   0.91244423   0.80401835   -1.0940693   0.83474651 
 6000030    34.660086    31.759294    31.759294    0.1814425   -1.6149721    1.1602819   0.99901774   -1.0707546   0.85860687 
 6000040     35.31405    31.463852    31.463852   0.44612679   -1.4216405    1.4458678     1.314153   -1.0417869   0.87995969 
 6000050    35.968014    31.176505    31.176505   0.55242952   -1.2597735    1.5608769    1.3561852   -1.0130851   0.89831959 
 6000060    36.621978    30.896889    30.896889   0.53775329   -1.2411969     1.531876    1.3225808  -0.99243782   0.92197567 
 6000070    37.275941    30.624665    30.624665   0.67532196  -0.96781314    1.5611377    1.4326413  -0.97327537   0.94319998 
 6000080    37.929905    30.359511    30.359511   0.80197989  -0.87785415    1.6788437    1.6049501  -0.94246871    0.9537355 
 6000090    38.583869    30.101128    30.101128   0.82074417  -0.81525681    1.6567737    1.6207156  -0.93404516   0.97749123 
 6000100    39.237833    29.849231    29.849231   0.85714239  -0.82898662    1.7135552    1.6868586  -0.91119651   0.99037355 
Loop time of 2.02929 on 216 procs for 100 steps with 28425 atoms

Performance: 21288.215 tau/day, 49.278 timesteps/s
99.7% CPU use with 216 MPI tasks x 1 OpenMP threads

MPI task timing breakdown:
Section |  min time  |  avg time  |  max time  |%varavg| %total
---------------------------------------------------------------
Pair    | 0.0010283  | 0.022151   | 0.062593   |   5.7 |  1.09
Bond    | 4.6968e-05 | 0.00025316 | 0.00052619 |   0.0 |  0.01
Kspace  | 1.3873     | 1.4287     | 1.4509     |   1.0 | 70.40
Neigh   | 0.050933   | 0.055577   | 0.060221   |   0.9 |  2.74
Comm    | 0.048419   | 0.072151   | 0.10266    |   3.2 |  3.56
Output  | 0.013849   | 0.020473   | 0.026185   |   1.4 |  1.01
Modify  | 0.23337    | 0.27609    | 0.34832    |   4.1 | 13.61
Other   |            | 0.1539     |            |       |  7.59

Nlocal:    131.597 ave 218 max 8 min
Histogram: 2 4 0 3 8 114 65 9 7 4
Nghost:    971.171 ave 1212 max 420 min
Histogram: 2 2 2 4 7 13 65 87 27 7
Neighs:    5021.97 ave 11043 max 125 min
Histogram: 6 1 8 38 118 26 5 8 2 4

Total # of neighbors = 1084745
Ave neighs/atom = 38.1617
Ave special neighs/atom = 0.612137
Neighbor list builds = 49
Dangerous builds = 0
PPPM initialization ...
  using 12-bit tables for long-range coulomb (src/kspace.cpp:332)
  G vector (1/distance) = 1.21635
  grid = 125 108 108
  stencil order = 5
  estimated absolute RMS force accuracy = 0.000112785
  estimated relative force accuracy = 0.000112785
  using double precision FFTW3
  3d grid and FFT values/proc = 16875 6804
WARNING: Neighbor exclusions used with KSpace solver may give inconsistent Coulombic energies (src/neighbor.cpp:486)
Neighbor list info ...
  update every 1 steps, delay 0 steps, check yes
  max neighbors/atom: 2000, page size: 100000
  master list distance cutoff = 2.8
  ghost atom cutoff = 2.8
  binsize = 1.4, bins = 29 22 22
  7 neighbor lists, perpetual/occasional/extra = 2 5 0
  (1) pair lj/cut, perpetual
      attributes: half, newton on
      pair build: half/bin/newton
      stencil: half/bin/3d/newton
      bin: standard
  (2) pair coul/long, perpetual, skip from (1)
      attributes: half, newton on
      pair build: skip
      stencil: none
      bin: none
  (3) compute rdf, occasional, copy from (1)
      attributes: half, newton on
      pair build: copy
      stencil: none
      bin: none
  (4) compute rdf, occasional, copy from (1)
      attributes: half, newton on
      pair build: copy
      stencil: none
      bin: none
  (5) compute rdf, occasional, copy from (1)
      attributes: half, newton on
      pair build: copy
      stencil: none
      bin: none
  (6) compute rdf, occasional, copy from (1)
      attributes: half, newton on
      pair build: copy
      stencil: none
      bin: none
  (7) compute rdf, occasional, copy from (1)
      attributes: half, newton on
      pair build: copy
      stencil: none
      bin: none
Setting up Verlet run ...
  Unit style    : lj
  Current step  : 6000100
  Time step     : 0.005
Per MPI rank memory allocation (min/avg/max) = 19.34 | 19.79 | 20.4 Mbytes
Step Lx Ly Lz Press Pxx Pyy Pzz PotEng Temp 
 6000100    39.237833    29.849231    29.849231   0.92121078   -1.1906356    2.3771704    1.5770976  -0.90750454   0.99037355 
 6010000    39.237833    29.849231    29.849231  -0.20023278  -0.21771051  -0.15195226  -0.23103557   -1.1438308   0.79967291 
 6020000    39.237833    29.849231    29.849231  -0.27318213  -0.36033369  -0.20703028  -0.25218243   -1.1423733   0.80478855 
 6030000    39.237833    29.849231    29.849231  -0.13962724   -0.1629197 -0.088152094  -0.16780991   -1.1557204   0.79816666 
 6040000    39.237833    29.849231    29.849231  -0.17410769  -0.19384479  -0.15211304  -0.17636524   -1.1420688   0.79497856 
 6050000    39.237833    29.849231    29.849231  -0.21360283  -0.22000053  -0.29119918  -0.12960879   -1.1273259   0.80089268 
 6060000    39.237833    29.849231    29.849231  -0.15970262   -0.1938597  -0.21136359 -0.073884554   -1.1371703   0.79627599 
 6070000    39.237833    29.849231    29.849231  -0.14587271  -0.20120029  -0.10450786  -0.13190997   -1.1414793   0.79405441 
 6080000    39.237833    29.849231    29.849231  -0.14706236 -0.072863648   -0.1857495  -0.18257394   -1.1377531   0.79939328 
 6090000    39.237833    29.849231    29.849231  -0.20163934  -0.17387513  -0.21024841  -0.22079447   -1.1250644    0.7934138 
 6100000    39.237833    29.849231    29.849231  -0.13643699 -0.082049029   -0.1888051  -0.13845684   -1.1394458   0.78985937 
 6100100    39.237833    29.849231    29.849231  -0.25777863  -0.26386481  -0.21413621  -0.29533488   -1.1500436   0.80117249 
Loop time of 1372.15 on 216 procs for 100000 steps with 28425 atoms

Performance: 31483.391 tau/day, 72.878 timesteps/s
99.9% CPU use with 216 MPI tasks x 1 OpenMP threads

MPI task timing breakdown:
Section |  min time  |  avg time  |  max time  |%varavg| %total
---------------------------------------------------------------
Pair    | 1.0771     | 22.113     | 62.877     | 170.7 |  1.61
Bond    | 0.069428   | 0.26739    | 0.50343    |  11.3 |  0.02
Kspace  | 1197.6     | 1247.2     | 1266.4     |  28.6 | 90.89
Neigh   | 15.076     | 15.869     | 16.548     |   7.7 |  1.16
Comm    | 26.545     | 35.243     | 60.439     |  92.3 |  2.57
Output  | 0.043002   | 0.043068   | 0.043945   |   0.0 |  0.00
Modify  | 35.508     | 40.339     | 47.142     |  35.5 |  2.94
Other   |            | 11.06      |            |       |  0.81

Nlocal:    131.597 ave 265 max 2 min
Histogram: 2 2 3 6 122 66 12 1 1 1
Nghost:    975.306 ave 1222 max 410 min
Histogram: 2 0 3 4 9 10 75 72 36 5
Neighs:    4995.66 ave 14430 max 35 min
Histogram: 4 6 34 130 31 6 3 0 0 2

Total # of neighbors = 1079063
Ave neighs/atom = 37.9618
Ave special neighs/atom = 0.612137
Neighbor list builds = 13431
Dangerous builds = 0
Total wall time: 30:31:21
