LAMMPS (3 Mar 2020)
OMP_NUM_THREADS environment is not set. Defaulting to 1 thread. (src/comm.cpp:94)
  using 1 OpenMP thread(s) per MPI task
Reading restart file ...
  restart file = 3 Mar 2020, LAMMPS = 3 Mar 2020
  restoring atom style full from restart
  orthogonal box = (0.713543 0.713543 0.713543) to (33.0765 33.0765 33.0765)
  6 by 6 by 6 MPI processor grid
  restoring pair style hybrid/overlay from restart
  restoring bond style fene from restart
  27475 atoms
  8700 bonds
Finding 1-2 1-3 1-4 neighbors ...
  special bond factors lj:   0          1          1         
  special bond factors coul: 0          1          1         
  2 = max # of 1-2 neighbors
  6 = max # of special neighbors
  special bonds CPU = 2.44872 secs
  read_restart CPU = 2.60873 secs
Resetting global fix info from restart file:
  fix style: nvt, fix ID: pt
25 rigid bodies with 475 atoms
Resetting global fix info from restart file:
  fix style: rigid/nvt, fix ID: ri
System init for write_data ...
PPPM initialization ...
  using 12-bit tables for long-range coulomb (src/kspace.cpp:332)
  G vector (1/distance) = 1.20772
  grid = 108 108 108
  stencil order = 5
  estimated absolute RMS force accuracy = 0.000134208
  estimated relative force accuracy = 0.000134208
  using double precision FFTW3
  3d grid and FFT values/proc = 15625 5832
All restart file global fix info was re-assigned
Unused restart file peratom fix info:
  fix style: STORE, fix ID: par_COMPUTE_STORE
WARNING: Neighbor exclusions used with KSpace solver may give inconsistent Coulombic energies (src/neighbor.cpp:486)
Neighbor list info ...
  update every 1 steps, delay 0 steps, check yes
  max neighbors/atom: 2000, page size: 100000
  master list distance cutoff = 2.8
  ghost atom cutoff = 2.8
  binsize = 1.4, bins = 24 24 24
  2 neighbor lists, perpetual/occasional/extra = 2 0 0
  (1) pair lj/cut, perpetual
      attributes: half, newton on
      pair build: half/bin/newton
      stencil: half/bin/3d/newton
      bin: standard
  (2) pair coul/long, perpetual, skip from (1)
      attributes: half, newton on
      pair build: skip
      stencil: none
      bin: none
PPPM initialization ...
  using 12-bit tables for long-range coulomb (src/kspace.cpp:332)
  G vector (1/distance) = 1.20772
  grid = 108 108 108
  stencil order = 5
  estimated absolute RMS force accuracy = 0.000134208
  estimated relative force accuracy = 0.000134208
  using double precision FFTW3
  3d grid and FFT values/proc = 15625 5832
WARNING: Neighbor exclusions used with KSpace solver may give inconsistent Coulombic energies (src/neighbor.cpp:486)
Neighbor list info ...
  update every 1 steps, delay 0 steps, check yes
  max neighbors/atom: 2000, page size: 100000
  master list distance cutoff = 2.8
  ghost atom cutoff = 2.8
  binsize = 1.4, bins = 24 24 24
  2 neighbor lists, perpetual/occasional/extra = 2 0 0
  (1) pair lj/cut, perpetual
      attributes: half, newton on
      pair build: half/bin/newton
      stencil: half/bin/3d/newton
      bin: standard
  (2) pair coul/long, perpetual, skip from (1)
      attributes: half, newton on
      pair build: skip
      stencil: none
      bin: none
Setting up Verlet run ...
  Unit style    : lj
  Current step  : 12000000
  Time step     : 0.005
Per MPI rank memory allocation (min/avg/max) = 10.66 | 10.66 | 10.79 Mbytes
Step Temp Press Volume 
12000000   0.80788383  -0.13399229    33895.565 
12010000   0.79523364  -0.19687483    33895.565 
12020000   0.79650208  -0.20453983    33895.565 
12030000   0.79542049  -0.21581474    33895.565 
12040000   0.79546394  -0.16329243    33895.565 
12050000   0.80311133  -0.19100497    33895.565 
12060000   0.80046502  -0.19444518    33895.565 
12070000   0.80377165  -0.25591221    33895.565 
12080000   0.79276147  -0.23308812    33895.565 
12090000   0.80157448  -0.17968425    33895.565 
12100000   0.79921858  -0.19673367    33895.565 
12110000   0.80302789  -0.20562411    33895.565 
12120000   0.79401153  -0.27550429    33895.565 
12130000   0.80179518  -0.23252993    33895.565 
12140000   0.79958213  -0.23268595    33895.565 
12150000   0.79663503  -0.22742916    33895.565 
12160000   0.79885647  -0.26595524    33895.565 
12170000   0.79448923  -0.19068979    33895.565 
12180000   0.79375222  -0.21936698    33895.565 
12190000   0.80795228  -0.24552588    33895.565 
12200000   0.80492102  -0.18820583    33895.565 
12210000   0.80558041  -0.20688457    33895.565 
12220000   0.80117462  -0.18624508    33895.565 
12230000   0.79473083  -0.21615628    33895.565 
12240000   0.79507955  -0.21164086    33895.565 
12250000   0.80036117  -0.16960682    33895.565 
12260000   0.80058874  -0.17971551    33895.565 
12270000   0.79983204  -0.14958879    33895.565 
12280000   0.79509714  -0.24561176    33895.565 
12290000   0.80306655  -0.18968792    33895.565 
12300000   0.80443585  -0.13546013    33895.565 
12310000   0.79453918  -0.14375532    33895.565 
12320000   0.79664023  -0.23250622    33895.565 
12330000   0.80376353  -0.14765319    33895.565 
12340000   0.79207668  -0.27032421    33895.565 
12350000   0.80048984  -0.20124905    33895.565 
12360000   0.80554478  -0.20312563    33895.565 
12370000    0.8010215 -0.079465645    33895.565 
12380000   0.79583759  -0.22502523    33895.565 
12390000    0.7967989  -0.27159651    33895.565 
12400000    0.8000735   -0.2085163    33895.565 
12410000   0.80357208  -0.21316285    33895.565 
12420000   0.79479986  -0.17468978    33895.565 
12430000   0.79330319  -0.18104018    33895.565 
12440000   0.80017563   -0.2027833    33895.565 
12450000   0.80119327  -0.20505398    33895.565 
12460000   0.79540713  -0.22342255    33895.565 
12470000   0.80199355  -0.23672929    33895.565 
12480000   0.80239688   -0.2250436    33895.565 
12490000   0.79735213  -0.17879849    33895.565 
12500000   0.79728537   -0.1787158    33895.565 
12510000   0.80144955  -0.17182374    33895.565 
12520000   0.79602876   -0.1805484    33895.565 
12530000   0.79929161  -0.27229883    33895.565 
12540000   0.79870831  -0.26207148    33895.565 
12550000   0.79591013  -0.18534652    33895.565 
12560000   0.80112141  -0.19712031    33895.565 
12570000    0.8009594  -0.19102464    33895.565 
12580000   0.79816236  -0.16232445    33895.565 
12590000   0.80021006  -0.18909385    33895.565 
12600000   0.80405387  -0.19306079    33895.565 
12610000   0.80208125  -0.15410945    33895.565 
12620000   0.79203538  -0.22023181    33895.565 
12630000   0.80168559  -0.18273599    33895.565 
12640000   0.79793536  -0.18578728    33895.565 
12650000   0.80231788   -0.2258435    33895.565 
12660000   0.79630187  -0.21590261    33895.565 
12670000   0.79640096  -0.23729035    33895.565 
12680000   0.80240247  -0.18726953    33895.565 
12690000   0.80192302  -0.17463586    33895.565 
12700000     0.797712  -0.25842162    33895.565 
12710000   0.80047666  -0.14661513    33895.565 
12720000   0.79969014  -0.22379596    33895.565 
12730000   0.79949073  -0.20608085    33895.565 
12740000   0.80496647  -0.17127195    33895.565 
12750000   0.79880451  -0.24574208    33895.565 
12760000   0.79887559  -0.20415821    33895.565 
12770000   0.79874117  -0.21063386    33895.565 
12780000   0.79608494  -0.22112587    33895.565 
12790000   0.79762158  -0.21318447    33895.565 
12800000   0.79757618  -0.14591215    33895.565 
12810000   0.79958436  -0.26673618    33895.565 
12820000   0.79505271  -0.13845448    33895.565 
12830000   0.80105067  -0.23538584    33895.565 
12840000   0.79948278  -0.18150554    33895.565 
12850000   0.79627819  -0.23714835    33895.565 
12860000   0.79642441  -0.23624259    33895.565 
12870000     0.796075  -0.20340844    33895.565 
12880000   0.79848111  -0.22085578    33895.565 
12890000   0.80841577  -0.21786973    33895.565 
12900000   0.79088033  -0.26753019    33895.565 
12910000   0.79629766  -0.20121291    33895.565 
12920000   0.80211494   -0.2221461    33895.565 
12930000   0.80195707  -0.14013065    33895.565 
12940000    0.8002551  -0.18299785    33895.565 
12950000   0.80028474  -0.22533445    33895.565 
12960000   0.80224764  -0.24339082    33895.565 
12970000   0.80986857  -0.23578324    33895.565 
12980000   0.80297641  -0.24567277    33895.565 
12990000   0.79886622  -0.21481356    33895.565 
13000000   0.80791469  -0.12009082    33895.565 
Loop time of 11640.1 on 216 procs for 1000000 steps with 27475 atoms

Performance: 37113.219 tau/day, 85.910 timesteps/s
99.9% CPU use with 216 MPI tasks x 1 OpenMP threads

MPI task timing breakdown:
Section |  min time  |  avg time  |  max time  |%varavg| %total
---------------------------------------------------------------
Pair    | 170.75     | 193.7      | 259.52     | 115.3 |  1.66
Bond    | 1.7086     | 2.2735     | 3.2173     |  17.7 |  0.02
Kspace  | 10283      | 10494      | 10613      |  69.5 | 90.16
Neigh   | 109.55     | 115.73     | 122        |  24.2 |  0.99
Comm    | 282.81     | 398.88     | 583.85     | 319.8 |  3.43
Output  | 0.013683   | 0.015801   | 0.029144   |   0.9 |  0.00
Modify  | 278.71     | 333.42     | 395.8      | 150.7 |  2.86
Other   |            | 101.6      |            |       |  0.87

Nlocal:    127.199 ave 164 max 115 min
Histogram: 25 56 81 33 7 3 4 1 1 5
Nghost:    950.407 ave 1043 max 895 min
Histogram: 7 28 67 40 24 16 12 13 6 3
Neighs:    4654.63 ave 7509 max 3891 min
Histogram: 43 98 42 14 5 6 0 2 3 3

Total # of neighbors = 1005401
Ave neighs/atom = 36.5933
Ave special neighs/atom = 0.633303
Neighbor list builds = 134437
Dangerous builds = 0
PPPM initialization ...
  using 12-bit tables for long-range coulomb (src/kspace.cpp:332)
  G vector (1/distance) = 1.20772
  grid = 108 108 108
  stencil order = 5
  estimated absolute RMS force accuracy = 0.000134208
  estimated relative force accuracy = 0.000134208
  using double precision FFTW3
  3d grid and FFT values/proc = 15625 5832
WARNING: Neighbor exclusions used with KSpace solver may give inconsistent Coulombic energies (src/neighbor.cpp:486)
Neighbor list info ...
  update every 1 steps, delay 0 steps, check yes
  max neighbors/atom: 2000, page size: 100000
  master list distance cutoff = 2.8
  ghost atom cutoff = 2.8
  binsize = 1.4, bins = 24 24 24
  7 neighbor lists, perpetual/occasional/extra = 2 5 0
  (1) pair lj/cut, perpetual
      attributes: half, newton on
      pair build: half/bin/newton
      stencil: half/bin/3d/newton
      bin: standard
  (2) pair coul/long, perpetual, skip from (1)
      attributes: half, newton on
      pair build: skip
      stencil: none
      bin: none
  (3) compute rdf, occasional, copy from (1)
      attributes: half, newton on
      pair build: copy
      stencil: none
      bin: none
  (4) compute rdf, occasional, copy from (1)
      attributes: half, newton on
      pair build: copy
      stencil: none
      bin: none
  (5) compute rdf, occasional, copy from (1)
      attributes: half, newton on
      pair build: copy
      stencil: none
      bin: none
  (6) compute rdf, occasional, copy from (1)
      attributes: half, newton on
      pair build: copy
      stencil: none
      bin: none
  (7) compute rdf, occasional, copy from (1)
      attributes: half, newton on
      pair build: copy
      stencil: none
      bin: none
Setting up Verlet run ...
  Unit style    : lj
  Current step  : 0
  Time step     : 0.005
Per MPI rank memory allocation (min/avg/max) = 18.32 | 19.49 | 20.33 Mbytes
Step Temp Press PotEng KinEng E_pair E_bond TotEng 
       0   0.80791469 -0.010632108    0.5608292     1.193082   -5.9669376    6.5277668    1.7539112 
   10000   0.79940965  -0.23797029    0.5574955    1.1805222   -5.9701405     6.527636    1.7380177 
   20000   0.79695722  -0.26900266   0.55329511    1.1769006   -5.9721003    6.5253954    1.7301957 
   30000   0.79709027   -0.2303909   0.55513333    1.1770971   -5.9752933    6.5304267    1.7322304 
   40000   0.80079219  -0.22873435   0.55385303    1.1825639   -5.9742308    6.5280839    1.7364169 
   50000   0.80342081  -0.24041814    0.5510247    1.1864457   -5.9757365    6.5267612    1.7374704 
   60000   0.79855053  -0.23056855   0.54541154    1.1792535   -5.9793745     6.524786     1.724665 
   70000   0.80748978  -0.23993769   0.55534622    1.1924545   -5.9701286    6.5254749    1.7478007 
   80000   0.79451935  -0.22969247   0.54659015    1.1733005   -5.9801781    6.5267683    1.7198906 
   90000   0.81025511  -0.19006126   0.55546739    1.1965381   -5.9733963    6.5288637    1.7520055 
  100000   0.79425295  -0.25742599   0.55298579    1.1729071   -5.9749347    6.5279205    1.7258929 
  110000   0.80295843  -0.21178919   0.54831574    1.1857628   -5.9755543      6.52387    1.7340786 
  120000   0.79780384  -0.19742134   0.56551872    1.1781508   -5.9631737    6.5286925    1.7436696 
  130000   0.79409343  -0.21283138   0.55511175    1.1726715   -5.9741642    6.5292759    1.7277833 
  140000   0.80155946   -0.2068022   0.55661722    1.1836969   -5.9712524    6.5278696    1.7403141 
  150000   0.80028834  -0.17046086   0.55104118    1.1818198   -5.9773119    6.5283531     1.732861 
  160000   0.79888899  -0.21695789   0.55410074    1.1797533   -5.9731558    6.5272565    1.7338541 
  170000   0.79354144  -0.19309809   0.55522745    1.1718564   -5.9709408    6.5261683    1.7270838 
  180000   0.80468159  -0.20959888   0.55406126    1.1883075   -5.9740718     6.528133    1.7423688 
  190000   0.79190633  -0.29477725    0.5563401    1.1694417    -5.968047    6.5243871    1.7257818 
  200000   0.79768383  -0.22329341   0.55584874    1.1779736   -5.9712607    6.5271094    1.7338224 
  210000   0.79885337  -0.20679117   0.56130624    1.1797007   -5.9661893    6.5274955     1.741007 
  220000   0.80307455  -0.20912008   0.54869827    1.1859343   -5.9782216    6.5269199    1.7346326 
  230000   0.80089123  -0.23728407   0.54232752    1.1827101    -5.982384    6.5247115    1.7250376 
  240000   0.79387437  -0.21473139   0.56069615     1.172348   -5.9669534    6.5276495    1.7330442 
  250000   0.80071948  -0.14207528   0.56578462    1.1824565   -5.9642483    6.5300329    1.7482411 
  260000   0.80226259  -0.24017381    0.5502249    1.1847353   -5.9750636    6.5252885    1.7349602 
  270000   0.80051226  -0.20383371   0.55690124    1.1821505   -5.9691904    6.5260916    1.7390517 
  280000   0.79786526  -0.23840851   0.54916495    1.1782415    -5.976591     6.525756    1.7274065 
  290000   0.80439989  -0.18100294   0.55671984    1.1878915   -5.9714043    6.5281242    1.7446113 
  300000   0.79395469  -0.17434522   0.55994151    1.1724666   -5.9704103    6.5303519    1.7324081 
  310000    0.8078207  -0.21193695   0.55430935    1.1929432   -5.9715575    6.5258669    1.7472525 
  320000   0.79834327  -0.16848213   0.55482735    1.1789474    -5.973583    6.5284103    1.7337748 
  330000   0.80051639  -0.21796263   0.55966915    1.1821566   -5.9701185    6.5297876    1.7418257 
  340000   0.79342862  -0.20220505   0.56053251    1.1716898   -5.9661221    6.5266546    1.7322223 
  350000   0.79752815  -0.24553614   0.55465259    1.1777437   -5.9738821    6.5285347    1.7323963 
  360000   0.79936985  -0.26689778    0.5575825    1.1804634   -5.9695418    6.5271243    1.7380459 
  370000   0.80042284   -0.2812395   0.54985309    1.1820184   -5.9775124    6.5273655    1.7318715 
  380000   0.79981839  -0.20084955   0.54956201    1.1811258   -5.9800365    6.5295985    1.7306878 
  390000   0.80421178  -0.20018933   0.55324455    1.1876137   -5.9745922    6.5278368    1.7408583 
  400000   0.80217456  -0.16520223   0.55309305    1.1846053   -5.9735013    6.5265944    1.7376983 
  410000   0.80283441  -0.19404631   0.56157362    1.1855797   -5.9651042    6.5266778    1.7471533 
  420000   0.80416416  -0.19974508   0.55595392    1.1875434   -5.9721474    6.5281013    1.7434973 
  430000    0.8020516  -0.21217535   0.55384568    1.1844237   -5.9736107    6.5274563    1.7382694 
  440000   0.80513672  -0.16385786   0.55624127    1.1889796   -5.9696696    6.5259109    1.7452209 
  450000   0.79817714  -0.15657977   0.56023653    1.1787021   -5.9688577    6.5290942    1.7389386 
  460000   0.79188589  -0.20863965   0.55499545    1.1694115   -5.9717988    6.5267942     1.724407 
  470000   0.79956596  -0.20434403   0.54734047     1.180753   -5.9789505     6.526291    1.7280935 
  480000   0.79607349  -0.18674307   0.56180786    1.1755956    -5.965464    6.5272719    1.7374034 
  490000   0.80615119  -0.19628568    0.5615051    1.1904777   -5.9691867    6.5306918    1.7519828 
  500000   0.80256802  -0.28103207   0.54968867    1.1851863   -5.9769603     6.526649     1.734875 
  510000   0.80272845   -0.2406144   0.55612681    1.1854232    -5.971257    6.5273838      1.74155 
  520000    0.8064957  -0.20720819   0.55521754    1.1909865   -5.9705112    6.5257287     1.746204 
  530000   0.80081263  -0.17825929   0.56495324     1.182594   -5.9631148     6.528068    1.7475473 
  540000   0.80396816  -0.15781824    0.5570981    1.1872539    -5.971619    6.5287171     1.744352 
  550000   0.80334604  -0.26443224    0.5562823    1.1863352   -5.9723467     6.528629    1.7426175 
  560000   0.79472538  -0.22193629    0.5593104    1.1736047   -5.9701628    6.5294732    1.7329151 
  570000   0.79190282  -0.18826877   0.56040952    1.1694365   -5.9679838    6.5283933    1.7298461 
  580000   0.80613893  -0.14345523    0.5608524    1.1904596   -5.9672295    6.5280819     1.751312 
  590000    0.7948808  -0.15489555   0.55187504    1.1738343    -5.973749    6.5256241    1.7257093 
  600000   0.80657512  -0.22519514   0.56188695    1.1911038   -5.9648759    6.5267628    1.7529907 
  610000   0.80072958  -0.30349616   0.55657794    1.1824714   -5.9723264    6.5289043    1.7390493 
  620000   0.80398807  -0.17605189   0.55496502    1.1872834    -5.969594    6.5245591    1.7422484 
  630000   0.80005816  -0.20174458   0.54948876    1.1814799    -5.973629    6.5231177    1.7309686 
  640000   0.79795425  -0.13207786   0.55323324     1.178373    -5.970948    6.5241813    1.7316062 
  650000    0.8008352  -0.23379092   0.55128369    1.1826274   -5.9741255    6.5254092    1.7339111 
  660000   0.79939663  -0.23628917   0.55753385     1.180503   -5.9731285    6.5306624    1.7380368 
  670000   0.80012625  -0.18641975   0.55805408    1.1815804   -5.9688517    6.5269058    1.7396345 
  680000    0.8015729  -0.20759175   0.56288733    1.1837168   -5.9701133    6.5330006    1.7466041 
  690000    0.7949837  -0.14782269   0.56057805    1.1739862   -5.9692267    6.5298047    1.7345643 
  700000   0.80477944  -0.21819078   0.55812692     1.188452   -5.9666896    6.5248166    1.7465789 
  710000   0.80427684  -0.17775817   0.56269633    1.1877098   -5.9663335    6.5290298    1.7504061 
  720000   0.80414704   -0.2430389   0.54614832    1.1875181   -5.9788225    6.5249709    1.7336664 
  730000   0.80336925   -0.1898363    0.5566143    1.1863695   -5.9726401    6.5292544    1.7429838 
  740000   0.79967003  -0.21819114   0.55960082    1.1809067   -5.9694438    6.5290446    1.7405075 
  750000   0.79609338  -0.25079125   0.55457531    1.1756249    -5.975148    6.5297233    1.7302002 
  760000   0.79976796  -0.18659419   0.54929384    1.1810513   -5.9780608    6.5273547    1.7303452 
  770000   0.80050041  -0.18492621    0.5595433     1.182133   -5.9699748    6.5295181    1.7416763 
  780000    0.7969731  -0.26668043    0.5480707     1.176924    -5.979514    6.5275847    1.7249947 
  790000   0.79553852  -0.28105043    0.5434172    1.1748055   -5.9823799    6.5257971    1.7182227 
  800000   0.79799285  -0.22420167   0.54985442    1.1784299   -5.9764718    6.5263263    1.7282844 
  810000    0.7969312  -0.17860253    0.5573813    1.1768622   -5.9724832    6.5298645    1.7342435 
  820000   0.81223681  -0.20444255   0.55679864    1.1994646   -5.9720573     6.528856    1.7562633 
  830000   0.79766774  -0.20905429   0.55420878    1.1779499   -5.9752951    6.5295039    1.7321586 
  840000   0.80537468  -0.23501809   0.55716557     1.189331   -5.9714834    6.5286489    1.7464966 
  850000   0.80354954  -0.27415417   0.54289332    1.1866357   -5.9812638    6.5241572    1.7295291 
  860000   0.79801881  -0.21691173   0.55022658    1.1784683   -5.9711598    6.5213864    1.7286949 
  870000   0.79744263   -0.2180863   0.55243564    1.1776174   -5.9724204    6.5248561     1.730053 
  880000   0.79983249  -0.22524688   0.55834579    1.1811466   -5.9704234    6.5287691    1.7394924 
  890000    0.8045198   -0.1982877   0.54833194    1.1880686   -5.9781596    6.5264915    1.7364005 
  900000    0.8021937  -0.22872244   0.55310878    1.1846335   -5.9733791    6.5264879    1.7377423 
  910000    0.8012027  -0.18965633    0.5492136    1.1831701   -5.9774402    6.5266538    1.7323837 
  920000   0.79701889  -0.25132119   0.55539587    1.1769917   -5.9699977    6.5253935    1.7323875 
  930000   0.80077096  -0.17507826   0.55892351    1.1825325   -5.9686166    6.5275401     1.741456 
  940000   0.80629299  -0.22684835    0.5451625    1.1906871   -5.9807008    6.5258633    1.7358496 
  950000   0.80403165  -0.16100482   0.55226384    1.1873477   -5.9737153    6.5259792    1.7396115 
  960000   0.79725169  -0.23189043   0.55404196    1.1773355   -5.9768606    6.5309026    1.7313774 
  970000   0.80152704  -0.17944889   0.55448718     1.183649   -5.9722497    6.5267369    1.7381362 
  980000    0.7988526  -0.23675143   0.55194206    1.1796996   -5.9758731    6.5278151    1.7316416 
  990000   0.79870378  -0.20448283   0.55531218    1.1794798   -5.9742399    6.5295521     1.734792 
 1000000   0.79630941  -0.10593634   0.56008003    1.1759439   -5.9654638    6.5255438     1.736024 
 1010000   0.80621641   -0.2308673   0.54689367     1.190574   -5.9804296    6.5273233    1.7374677 
 1020000   0.80308191  -0.17851675   0.55815709    1.1859452   -5.9703431    6.5285002    1.7441023 
 1030000   0.80365567   -0.2062782    0.5562552    1.1867925   -5.9694541    6.5257093    1.7430477 
 1040000   0.81125339  -0.19449461   0.55456768    1.1980123   -5.9714439    6.5260116      1.75258 
 1050000   0.79097895  -0.19638248   0.55746944    1.1680722   -5.9695426     6.527012    1.7255417 
 1060000   0.80591622  -0.20001951   0.55128701    1.1901307   -5.9769642    6.5282512    1.7414177 
 1070000   0.79932528  -0.24084021   0.55937785    1.1803976   -5.9708299    6.5302077    1.7397755 
 1080000   0.79590697  -0.17487861   0.56070577    1.1753496   -5.9667975    6.5275032    1.7360554 
 1090000    0.7974164  -0.18607252    0.5655557    1.1775787   -5.9641142    6.5296699    1.7431344 
 1100000   0.79637949  -0.28726014   0.55368031    1.1760474   -5.9745822    6.5282626    1.7297277 
 1110000   0.79481213  -0.19375483   0.55671547    1.1737328    -5.970288    6.5270035    1.7304483 
 1120000   0.80426965  -0.23517881   0.54748444    1.1876992   -5.9776232    6.5251076    1.7351836 
 1130000   0.79801335  -0.25789384   0.55104199    1.1784602   -5.9753005    6.5263425    1.7295022 
 1140000   0.79768274  -0.20869539   0.55217294     1.177972   -5.9736785    6.5258515    1.7301449 
 1150000   0.79946394  -0.22468772   0.55789346    1.1806024   -5.9702848    6.5281782    1.7384958 
 1160000   0.80458389  -0.18291983   0.55222208    1.1881632   -5.9744415    6.5266636    1.7403853 
 1170000   0.80144346  -0.25773859   0.54994129    1.1835256   -5.9738387      6.52378    1.7334669 
 1180000   0.80266012  -0.21078794   0.55919548    1.1853223   -5.9671731    6.5263685    1.7445178 
 1190000   0.80505337   -0.2920189    0.5503772    1.1888565   -5.9764996    6.5268768    1.7392337 
 1200000   0.80274278  -0.18795062    0.5506816    1.1854444   -5.9774964    6.5281779     1.736126 
 1210000   0.80142682   -0.2420903   0.55629008     1.183501   -5.9732835    6.5295735    1.7397911 
 1220000   0.79189345  -0.29208086   0.54787718    1.1694227   -5.9765739    6.5244511    1.7172999 
 1230000   0.79649656  -0.19503716   0.55923208    1.1762203   -5.9667317    6.5259638    1.7354524 
 1240000   0.80140953  -0.19613037   0.55652739    1.1834755   -5.9699969    6.5265243    1.7400029 
 1250000   0.79533024  -0.22661799   0.55543479     1.174498   -5.9711575    6.5265923    1.7299328 
 1260000   0.80141741  -0.18694221   0.54936145    1.1834871   -5.9763365     6.525698    1.7328486 
 1270000   0.79637581  -0.24142135   0.55243195     1.176042    -5.971928    6.5243599    1.7284739 
 1280000   0.80717659  -0.19139996   0.55527851     1.191992   -5.9719872    6.5272657    1.7472705 
 1290000   0.80369489   -0.2546213   0.55055546    1.1868504   -5.9761182    6.5266736    1.7374058 
 1300000   0.79412172  -0.18829089   0.56010153    1.1727133   -5.9653454    6.5254469    1.7328148 
 1310000   0.80321787  -0.22461647   0.56074959     1.186146   -5.9659709    6.5267205    1.7468956 
 1320000   0.79343676   -0.2639693   0.54502902    1.1717018   -5.9822576    6.5272866    1.7167308 
 1330000   0.80251279  -0.22337608   0.54902394    1.1851047   -5.9796771     6.528701    1.7341287 
 1340000   0.80003364  -0.19453712    0.5529422    1.1814437   -5.9735055    6.5264477    1.7343859 
 1350000   0.79478303  -0.20798475   0.55707188    1.1736899   -5.9702905    6.5273624    1.7307618 
 1360000    0.8069481  -0.20370852   0.55484856    1.1916545   -5.9727305    6.5275791    1.7465031 
 1370000   0.79140074  -0.23259661   0.54973669    1.1686951   -5.9787247    6.5284614    1.7184318 
 1380000   0.80420039  -0.21518157   0.55894471    1.1875969   -5.9658612    6.5248059    1.7465416 
 1390000   0.80619663  -0.24416928   0.55487413    1.1905448   -5.9707256    6.5255997    1.7454189 
 1400000   0.79900683  -0.24707411   0.55199565    1.1799273   -5.9739114     6.525907     1.731923 
 1410000   0.79739839  -0.21847136    0.5471973    1.1775521   -5.9770411    6.5242384    1.7247494 
 1420000   0.79109021  -0.19491933   0.55562985    1.1682365   -5.9745155    6.5301454    1.7238664 
 1430000   0.79142818  -0.20126917   0.55295659    1.1687356    -5.971886    6.5248426    1.7216922 
 1440000   0.80366524  -0.20558752   0.55306874    1.1868066   -5.9731249    6.5261936    1.7398754 
 1450000   0.80223547   -0.1738781   0.56941909    1.1846952   -5.9563906    6.5258097    1.7541143 
 1460000   0.79994687  -0.22822874   0.55499827    1.1813155   -5.9732892    6.5282875    1.7363138 
 1470000   0.79884382  -0.19763829   0.56289689    1.1796866   -5.9625455    6.5254424    1.7425835 
 1480000   0.80518844  -0.16811896   0.55206912     1.189056    -5.974311    6.5263802    1.7411251 
 1490000   0.79998454  -0.20882061   0.56265541    1.1813712   -5.9624836     6.525139    1.7440266 
 1500000   0.79704075  -0.23326884   0.55509032     1.177024   -5.9729782    6.5280685    1.7321143 
 1510000   0.80090437  -0.22733125   0.55066619    1.1827295   -5.9777645    6.5284307    1.7333957 
 1520000   0.80335977  -0.22193926    0.5535028    1.1863555   -5.9733474    6.5268502    1.7398583 
 1530000   0.79944105  -0.24893605   0.54703543    1.1805686   -5.9781442    6.5251796     1.727604 
 1540000   0.80340189  -0.24048835   0.55057193    1.1864177   -5.9733617    6.5239336    1.7369896 
 1550000   0.79884269   -0.1975299   0.55515388    1.1796849   -5.9703034    6.5254573    1.7348388 
 1560000   0.80490031  -0.18496012   0.55173775    1.1886305   -5.9786481    6.5303859    1.7403682 
 1570000   0.80638751  -0.20674417   0.55736553    1.1908267    -5.970973    6.5283385    1.7481922 
 1580000   0.79859059  -0.16756176   0.56871619    1.1793127     -5.95888    6.5275962    1.7480288 
 1590000   0.79939939  -0.20205284   0.55416921    1.1805071   -5.9760565    6.5302257    1.7346763 
 1600000   0.79759889  -0.18766686   0.55649489    1.1778482   -5.9696058    6.5261007    1.7343431 
 1610000   0.80244642  -0.22647899    0.5547307    1.1850067   -5.9741686    6.5288993    1.7397374 
 1620000   0.79971138   -0.1749492   0.56002814    1.1809678   -5.9679194    6.5279475    1.7409959 
 1630000   0.79312126  -0.26268708   0.55496597    1.1712359   -5.9740423    6.5290083    1.7262018 
 1640000   0.79573836  -0.26353385   0.55222617    1.1751007   -5.9740117    6.5262379    1.7273268 
 1650000    0.8049046  -0.23786292    0.5531848    1.1886368   -5.9713914    6.5245762    1.7418216 
 1660000   0.79505513  -0.17397899   0.54987165    1.1740917   -5.9744306    6.5243022    1.7239633 
 1670000   0.79244519  -0.15677064   0.55923313    1.1702375   -5.9707473    6.5299804    1.7294706 
 1680000     0.799678  -0.15747189   0.55504342    1.1809185   -5.9746426     6.529686    1.7359619 
 1690000   0.79740746  -0.21190032   0.55571195    1.1775655   -5.9738817    6.5295936    1.7332774 
 1700000   0.79745457  -0.21473659   0.55043643    1.1776351    -5.976864    6.5273004    1.7280715 
 1710000   0.80248217  -0.22097303    0.5534329    1.1850595   -5.9734054    6.5268383    1.7384924 
 1720000   0.80403352  -0.17962139   0.55794627    1.1873505   -5.9683171    6.5262634    1.7452967 
 1730000   0.80425712  -0.24118232   0.54841677    1.1876807   -5.9782536    6.5266703    1.7360974 
 1740000   0.80131657  -0.17604408   0.55378291    1.1833382   -5.9717941     6.525577    1.7371211 
 1750000   0.80048204  -0.17458891   0.55541669    1.1821058   -5.9700675    6.5254842    1.7375225 
 1760000   0.79752681  -0.15973095   0.55599479    1.1777417   -5.9727329    6.5287277    1.7337365 
 1770000   0.79483553  -0.23388268   0.55743168    1.1737674   -5.9666916    6.5241233    1.7311991 
 1780000   0.79664268  -0.21994326   0.56145355    1.1764361   -5.9663433    6.5277968    1.7378896 
 1790000   0.79819206  -0.27123517   0.55026558    1.1787241   -5.9747554     6.525021    1.7289897 
 1800000   0.79658109  -0.15737961   0.56352963    1.1763452   -5.9651565    6.5286861    1.7398748 
 1810000   0.78923155  -0.16266898   0.55613867    1.1654918    -5.972919    6.5290577    1.7216304 
 1820000   0.80467727  -0.17662072   0.55839286    1.1883011   -5.9714393    6.5298322     1.746694 
 1830000   0.79947244  -0.21048843    0.5488883    1.1806149   -5.9790668    6.5279551    1.7295032 
 1840000   0.80284487   -0.1966385   0.55071738    1.1855951   -5.9774463    6.5281637    1.7363125 
 1850000   0.80347892  -0.24556807   0.54150437    1.1865315   -5.9838939    6.5253982    1.7280358 
 1860000   0.80747275  -0.13439664   0.55530746    1.1924293   -5.9732071    6.5285145    1.7477368 
 1870000   0.79584418  -0.24844844   0.55988248    1.1752569   -5.9690183    6.5289008    1.7351394 
 1880000   0.79827583   -0.2112921   0.56012064    1.1788478   -5.9687777    6.5288983    1.7389685 
 1890000   0.80167292  -0.14505885   0.55946711    1.1838645   -5.9680917    6.5275588    1.7433316 
 1900000   0.80456623  -0.23306202   0.54318431    1.1881371   -5.9837214    6.5269057    1.7313215 
 1910000    0.7987331  -0.16710698   0.55191528    1.1795231   -5.9748988    6.5268141    1.7314384 
 1920000   0.80024669  -0.24365407   0.55903297    1.1817583   -5.9718871    6.5309201    1.7407913 
 1930000   0.80742197  -0.16479702   0.56240876    1.1923543   -5.9695875    6.5319963    1.7547631 
 1940000   0.80034086  -0.27118214   0.54733493    1.1818974   -5.9746788    6.5220137    1.7292323 
 1950000   0.79932081  -0.17222773   0.55399774     1.180391   -5.9759565    6.5299543    1.7343888 
 1960000   0.79832737  -0.19989645     0.551011     1.178924   -5.9743814    6.5253923    1.7299349 
 1970000   0.80589999  -0.16724505   0.55353292    1.1901068    -5.974462    6.5279949    1.7436397 
 1980000   0.79289549  -0.14733291   0.55738794    1.1709025   -5.9683928    6.5257807    1.7282904 
 1990000   0.80511158  -0.16981813   0.55489447    1.1889425   -5.9756051    6.5304996    1.7438369 
 2000000   0.80373114  -0.22927279    0.5628128    1.1869039    -5.965333    6.5281458    1.7497167 
 2010000   0.79122336  -0.15899978   0.55074441    1.1684332    -5.976411    6.5271554    1.7191776 
 2020000   0.79653311  -0.21944113    0.5522806    1.1762743   -5.9752258    6.5275064    1.7285549 
 2030000   0.80617683  -0.16016589   0.55994954    1.1905156   -5.9670987    6.5270483    1.7504651 
 2040000   0.79454011  -0.21409542   0.54469892    1.1733311   -5.9809305    6.5256294    1.7180301 
 2050000     0.796813  -0.21899448   0.55471431    1.1766876   -5.9721375    6.5268518    1.7314019 
 2060000   0.80301627  -0.16346878   0.55386712    1.1858482   -5.9742443    6.5281114    1.7397154 
 2070000   0.79691789  -0.23300641   0.55226738    1.1768425   -5.9746583    6.5269257    1.7291099 
 2080000   0.79577652  -0.17184377   0.55233299     1.175157   -5.9730672    6.5254001      1.72749 
 2090000   0.79685199   -0.1815382    0.5495981    1.1767452    -5.974342    6.5239401    1.7263433 
 2100000   0.80469029  -0.17886676   0.56392352    1.1883203   -5.9637042    6.5276277    1.7522439 
 2110000   0.79997015  -0.21491549   0.54976286    1.1813499   -5.9732844    6.5230472    1.7311128 
 2120000    0.7905491  -0.18321061   0.56134474    1.1674374   -5.9683577    6.5297025    1.7287822 
 2130000   0.80237476  -0.18429084   0.55728139    1.1849009   -5.9694408    6.5267222    1.7421823 
 2140000   0.80533973  -0.16466964   0.55439671    1.1892794   -5.9746563     6.529053    1.7436761 
 2150000   0.79577934  -0.17758305   0.55444715    1.1751612    -5.974648    6.5290951    1.7296083 
 2160000   0.79908592  -0.17839746   0.54732193    1.1800441   -5.9789064    6.5262283    1.7273661 
 2170000   0.80205088  -0.22491957   0.54200765    1.1844226   -5.9829291    6.5249368    1.7264303 
 2180000      0.80725  -0.19276112   0.55020282    1.1921004   -5.9770327    6.5272355    1.7423032 
 2190000   0.79879881   -0.2074198     0.554659    1.1796201   -5.9717588    6.5264178    1.7342791 
 2200000   0.80000901  -0.23255644   0.56078293    1.1814073   -5.9676722    6.5284551    1.7421902 
 2210000    0.7987465  -0.24152329   0.55350669    1.1795429   -5.9712896    6.5247963    1.7330496 
 2220000   0.79872125  -0.23034813   0.55114986    1.1795056   -5.9762442    6.5273941    1.7306555 
 2230000   0.80299259  -0.24969589   0.54371897    1.1858133   -5.9822359    6.5259549    1.7295323 
 2240000   0.80100699  -0.12627431   0.55625194    1.1828811   -5.9695085    6.5257604     1.739133 
 2250000   0.81216839  -0.16424947    0.5568706    1.1993636   -5.9732705    6.5301411    1.7562342 
 2260000    0.8033125  -0.18890275    0.5596683    1.1862857   -5.9660908    6.5257591     1.745954 
 2270000   0.80311002  -0.21274072   0.55553644    1.1859867   -5.9703464    6.5258829    1.7415231 
 2280000   0.79750811  -0.30689881   0.55290384    1.1777141   -5.9729667    6.5258706     1.730618 
 2290000   0.80208444  -0.18711103   0.56209093    1.1844722   -5.9662303    6.5283212    1.7465631 
 2300000   0.79701653  -0.17089461   0.55985694    1.1769882   -5.9675013    6.5273582    1.7368451 
 2310000   0.80714799  -0.15780555   0.55721165    1.1919497   -5.9728319    6.5300436    1.7491614 
 2320000   0.80310153  -0.15328952   0.55225203    1.1859742   -5.9753665    6.5276185    1.7382262 
 2330000   0.79605688   -0.2317483   0.55376152     1.175571   -5.9750513    6.5288128    1.7293325 
 2340000   0.80016045  -0.16769509   0.55761259    1.1816309   -5.9710728    6.5286854    1.7392435 
 2350000   0.80084309  -0.16207952    0.5632966     1.182639    -5.965066    6.5283626    1.7459356 
 2360000    0.8018921  -0.16983316    0.5583138    1.1841881   -5.9686234    6.5269372    1.7425019 
 2370000   0.79740687  -0.19786215   0.55207885    1.1775646   -5.9768064    6.5288853    1.7296435 
 2380000   0.80702735  -0.18428323   0.56138681    1.1917716   -5.9671565    6.5285433    1.7531584 
 2390000   0.80002039  -0.27097309   0.55531041    1.1814241    -5.971174    6.5264845    1.7367345 
 2400000   0.79786416  -0.23778392   0.55772099    1.1782399   -5.9699847    6.5277057    1.7359609 
 2410000   0.79532065   -0.1866647   0.55120332    1.1744838   -5.9765351    6.5277384    1.7256871 
 2420000   0.79522186   -0.2202216   0.54343385    1.1743379   -5.9833488    6.5267826    1.7177718 
 2430000   0.80292784  -0.14717328   0.55693951    1.1857177   -5.9692203    6.5261598    1.7426572 
 2440000   0.80351641  -0.22798926   0.55774732    1.1865868   -5.9694054    6.5271528    1.7443341 
 2450000   0.80124872   -0.2165206   0.54687851     1.183238   -5.9789833    6.5258618    1.7301166 
 2460000   0.79920239  -0.23496446   0.55335121    1.1802161   -5.9735571    6.5269083    1.7335673 
 2470000   0.79332052  -0.20393565   0.56139728    1.1715301   -5.9685039    6.5299011    1.7329274 
 2480000    0.8036963  -0.20424583   0.54580326    1.1868525     -5.97817    6.5239733    1.7326557 
 2490000   0.80363778  -0.19675799   0.55353851    1.1867661   -5.9703782    6.5239167    1.7403046 
 2500000    0.8049669  -0.22214648   0.55028056    1.1887288   -5.9753475    6.5256281    1.7390094 
 2510000   0.80253436  -0.18059153   0.55138097    1.1851366   -5.9738576    6.5252386    1.7365176 
 2520000   0.79481089  -0.22973889   0.55338316     1.173731    -5.973678    6.5270612    1.7271142 
 2530000   0.79912174  -0.23778001   0.54681312     1.180097   -5.9785448    6.5253579    1.7269101 
 2540000   0.79933515  -0.24212982   0.54970701    1.1804122   -5.9743305    6.5240375    1.7301192 
 2550000   0.79916839   -0.2711377   0.54721929    1.1801659   -5.9795148    6.5267341    1.7273852 
 2560000   0.79513807  -0.22308245   0.54907345    1.1742142    -5.978639    6.5277124    1.7232876 
 2570000   0.80403399   -0.1779557   0.55510156    1.1873512    -5.971544    6.5266456    1.7424527 
 2580000    0.7939361  -0.17986904   0.54805291    1.1724392   -5.9765095    6.5245625    1.7204921 
 2590000   0.79795551  -0.22444615   0.55137056    1.1783748    -5.973791    6.5251615    1.7297454 
 2600000   0.80561217   -0.2132591   0.55841165    1.1896817    -5.971029    6.5294407    1.7480934 
 2610000   0.80191416  -0.20777846   0.55579627    1.1842207   -5.9722452    6.5280415     1.740017 
 2620000   0.80466982  -0.15773949   0.54802292    1.1882901    -5.980681    6.5287039     1.736313 
 2630000   0.80517263  -0.12507563    0.5570935    1.1890326   -5.9667196    6.5238131    1.7461261 
 2640000   0.79869507  -0.19033246   0.56175186    1.1794669   -5.9646555    6.5264074    1.7412188 
 2650000     0.802264  -0.18562785   0.55871476    1.1847373   -5.9685672     6.527282    1.7434521 
 2660000   0.79598378  -0.22651076   0.55892965    1.1754631   -5.9709846    6.5299142    1.7343927 
 2670000   0.79509174  -0.25647254   0.55352313    1.1741458   -5.9739564    6.5274795    1.7276689 
 2680000   0.80552226  -0.20800259   0.55004362    1.1895489   -5.9761384     6.526182    1.7395926 
 2690000   0.80266886  -0.23622594   0.55367773    1.1853352   -5.9732265    6.5269042    1.7390129 
 2700000   0.79733512  -0.23401587   0.55691666    1.1774587   -5.9702032    6.5271198    1.7343753 
 2710000   0.79579847  -0.22238344   0.54851006    1.1751894   -5.9764742    6.5249843    1.7236995 
 2720000    0.8112186  -0.21356011   0.54826544     1.197961   -5.9797444    6.5280099    1.7462264 
 2730000   0.80369777   -0.2271863   0.55427941    1.1868547   -5.9721974    6.5264768    1.7411341 
 2740000   0.80195655  -0.20659424   0.55756856    1.1842833   -5.9704127    6.5279813    1.7418519 
 2750000   0.80413683  -0.20496811   0.55770386     1.187503   -5.9691905    6.5268944    1.7452069 
 2760000   0.79658316  -0.24690727   0.54971619    1.1763482   -5.9749489    6.5246651    1.7260644 
 2770000   0.79945393  -0.14851053     0.558003    1.1805876   -5.9712778    6.5292808    1.7385906 
 2780000   0.80098265  -0.21592859   0.54835996    1.1828451   -5.9795037    6.5278636    1.7312051 
 2790000   0.80099252  -0.24084484   0.55070632    1.1828597   -5.9750294    6.5257357     1.733566 
 2800000   0.79622579   -0.2683146   0.55240038    1.1758205   -5.9709181    6.5233184    1.7282208 
 2810000   0.79769165  -0.21587221   0.55570279    1.1779852   -5.9672552     6.522958    1.7336879 
 2820000    0.8001565  -0.20119884    0.5541217    1.1816251   -5.9738749    6.5279966    1.7357468 
 2830000   0.79592318  -0.22014319   0.55258461    1.1753736   -5.9738669    6.5264515    1.7279582 
 2840000   0.80449015  -0.16712521   0.56192666    1.1880248   -5.9654871    6.5274137    1.7499514 
 2850000   0.79110489  -0.22359785   0.55827894    1.1682582   -5.9708809    6.5291599    1.7265372 
 2860000   0.79540169  -0.21037062   0.55588389    1.1746035   -5.9681715    6.5240554    1.7304874 
 2870000   0.80096815  -0.19684884   0.55829702    1.1828237   -5.9662056    6.5245026    1.7411207 
 2880000   0.80654613  -0.20861675   0.55739278    1.1910609   -5.9688954    6.5262882    1.7484537 
 2890000   0.80346835    -0.173568   0.55421877    1.1865159   -5.9718382    6.5260569    1.7407346 
 2900000   0.80102399  -0.28915378   0.55524211    1.1829062    -5.976006    6.5312481    1.7381483 
 2910000   0.80041489   -0.2259707   0.55048488    1.1820067   -5.9747531    6.5252379    1.7324916 
 2920000   0.79486239  -0.22743369   0.55301974    1.1738071   -5.9748564    6.5278761    1.7268268 
 2930000   0.80689663   -0.2406365   0.54677557    1.1915785   -5.9782204     6.524996    1.7383541 
 2940000   0.80221954  -0.25727794   0.55429124    1.1846717   -5.9721699    6.5264611    1.7389629 
 2950000   0.79501373  -0.15113625    0.5589816    1.1740306   -5.9680951    6.5270767    1.7330122 
 2960000   0.79841706  -0.20068988   0.55660594    1.1790564   -5.9728854    6.5294913    1.7356623 
 2970000   0.79703128  -0.19288135   0.55653572      1.17701   -5.9728826    6.5294183    1.7335457 
 2980000   0.80326688  -0.15988076   0.55899425    1.1862183   -5.9671795    6.5261738    1.7452126 
 2990000   0.79372375  -0.23226453   0.56492307    1.1721256   -5.9634926    6.5284156    1.7370487 
 3000000   0.80546133  -0.22289818   0.55570683     1.189459   -5.9707828    6.5264896    1.7451658 
 3010000   0.79915851  -0.24692047   0.54710997    1.1801513   -5.9768356    6.5239456    1.7272613 
 3020000   0.80340501   -0.2290882   0.56056668    1.1864223   -5.9683195    6.5288861     1.746989 
 3030000     0.807952  -0.23720331   0.54909245    1.1931371   -5.9805193    6.5296118    1.7422295 
 3040000   0.80632528  -0.22554131   0.55186213    1.1907348   -5.9744718    6.5263339    1.7425969 
 3050000   0.80556481   -0.1402935   0.56283854    1.1896118   -5.9635624    6.5264009    1.7524503 
 3060000    0.7987648  -0.21573867   0.56550897    1.1795699   -5.9606929    6.5262019    1.7450789 
 3070000   0.80267542   -0.2721206   0.55190846    1.1853449   -5.9763257    6.5282341    1.7372534 
 3080000   0.79539803  -0.21769357   0.54739081    1.1745981   -5.9800996    6.5274905    1.7219889 
 3090000   0.80071214  -0.21546026   0.55815787    1.1824456   -5.9694883    6.5276462    1.7406035 
 3100000   0.81190128  -0.25364319   0.54522142    1.1989691     -5.98211    6.5273314    1.7441905 
 3110000   0.80283411  -0.19895415   0.55190008    1.1855792   -5.9776646    6.5295647    1.7374793 
 3120000   0.80096362  -0.20635837   0.55133369     1.182817   -5.9766838    6.5280175    1.7341507 
 3130000   0.80385809  -0.12709567   0.54889798    1.1870914   -5.9751208    6.5240188    1.7359894 
 3140000   0.79578325   -0.2133743   0.55554957    1.1751669    -5.971114    6.5266635    1.7307165 
 3150000   0.80192133  -0.19655866    0.5644783    1.1842313    -5.963635    6.5281133    1.7487096 
 3160000   0.80246083   -0.2081349   0.55849547     1.185028   -5.9698744    6.5283699    1.7435235 
 3170000    0.7972013   -0.2108998    0.5507395     1.177261   -5.9759798    6.5267193    1.7280005 
 3180000   0.79703098  -0.17385241   0.55344785    1.1770095   -5.9761344    6.5295823    1.7304574 
 3190000   0.79651155  -0.16908107   0.55306268    1.1762425   -5.9741555    6.5272182    1.7293051 
 3200000   0.79274218  -0.23822876   0.55463986    1.1706761   -5.9778589    6.5324987    1.7253159 
 3210000    0.7922934  -0.17429911   0.55767806    1.1700133   -5.9674623    6.5251404    1.7276914 
 3220000   0.79810787  -0.21817555    0.5579609    1.1785998   -5.9682494    6.5262103    1.7365607 
 3230000   0.79651739  -0.23691868   0.55202584    1.1762511   -5.9743029    6.5263287    1.7282769 
 3240000    0.7946044  -0.20577178   0.55132314    1.1734261   -5.9781332    6.5294564    1.7247492 
 3250000   0.80302249  -0.15400074   0.55518131    1.1858574   -5.9734584    6.5286397    1.7410387 
 3260000   0.79380976  -0.18295122   0.55498678    1.1722526   -5.9718924    6.5268792    1.7272394 
 3270000   0.80121923  -0.20886955   0.56205186    1.1831945   -5.9674929    6.5295448    1.7452464 
 3280000   0.79303567  -0.24409219   0.54775676    1.1711095   -5.9788588    6.5266156    1.7188662 
 3290000   0.80365294  -0.16164507   0.55275693    1.1867884   -5.9740971     6.526854    1.7395454 
 3300000   0.80101672  -0.20542881   0.55488334    1.1828954   -5.9735867    6.5284701    1.7377788 
 3310000     0.798954   -0.3082848   0.55846354    1.1798493   -5.9691448    6.5276083    1.7383129 
 3320000   0.79808865  -0.15433517   0.55377369    1.1785714   -5.9725383     6.526312    1.7323451 
 3330000   0.80179734  -0.22133726    0.5519337    1.1840482   -5.9719501    6.5238838    1.7359819 
 3340000   0.79683157  -0.19505101   0.55992554     1.176715   -5.9662654    6.5261909    1.7366406 
 3350000   0.80194818  -0.20444244   0.55313961     1.184271   -5.9745673    6.5277069    1.7374106 
 3360000   0.80189473  -0.18743723   0.55488101     1.184192   -5.9737803    6.5286613     1.739073 
 3370000   0.80037452  -0.10965507   0.56199551    1.1819471   -5.9653322    6.5273277    1.7439426 
 3380000   0.80193262   -0.1942579   0.55234926     1.184248   -5.9744326    6.5267819    1.7365972 
 3390000   0.80201134  -0.21045508   0.54978129    1.1843642   -5.9740259    6.5238071    1.7341455 
 3400000    0.8002859  -0.18907256   0.54523634    1.1818162   -5.9785592    6.5237955    1.7270525 
 3410000   0.79607199  -0.25465399   0.54508978    1.1755933    -5.983673    6.5287628    1.7206831 
 3420000   0.79897173  -0.22334798   0.56525224    1.1798755   -5.9648884    6.5301406    1.7451277 
 3430000   0.79739112  -0.16634693   0.55189884    1.1775414   -5.9762117    6.5281105    1.7294402 
 3440000    0.7918578  -0.19468711   0.55832108    1.1693701   -5.9663102    6.5246313    1.7276911 
 3450000   0.80886753  -0.22778256   0.55172824     1.194489   -5.9776996    6.5294278    1.7462173 
 3460000   0.79071008  -0.22210499    0.5522158    1.1676752   -5.9752507    6.5274664     1.719891 
 3470000   0.80338926  -0.16206599   0.55491451    1.1863991   -5.9768861    6.5318006    1.7413136 
 3480000   0.80379229  -0.21107616   0.56240295    1.1869942   -5.9684674    6.5308703    1.7493972 
 3490000   0.79518095  -0.21889062   0.56862874    1.1742775   -5.9586235    6.5272523    1.7429062 
 3500000   0.80672352  -0.21053811   0.54699695    1.1913229   -5.9788887    6.5258857    1.7383199 
 3510000   0.80829267  -0.27634382   0.55354844    1.1936401   -5.9741343    6.5276827    1.7471886 
 3520000   0.80753024  -0.14564799   0.55448142    1.1925142   -5.9730707    6.5275522    1.7469956 
 3530000   0.79970146   -0.2455241   0.55033577    1.1809531   -5.9754502     6.525786    1.7312889 
 3540000   0.79820911  -0.18429952   0.55966303    1.1787493   -5.9715214    6.5311845    1.7384123 
 3550000   0.80051143  -0.23008964   0.54771662    1.1821493   -5.9796522    6.5273688    1.7298659 
 3560000   0.80595331  -0.15178877   0.55031093    1.1901855   -5.9776453    6.5279562    1.7404964 
 3570000   0.79559479   -0.2654797    0.5497786    1.1748886   -5.9754326    6.5252112    1.7246672 
 3580000   0.79515038  -0.24741141   0.54788076    1.1742324   -5.9766434    6.5245241    1.7221131 
 3590000   0.80403532  -0.20795838   0.55728362    1.1873531   -5.9707408    6.5280244    1.7446367 
 3600000   0.80100472  -0.21337358   0.55715809    1.1828777   -5.9709254    6.5280835    1.7400358 
 3610000   0.80333284  -0.20169941   0.55269306    1.1863157   -5.9776683    6.5303613    1.7390088 
 3620000   0.79602414  -0.22879412   0.55749989    1.1755227   -5.9696579    6.5271578    1.7330226 
 3630000    0.7998374  -0.18703349     0.549448    1.1811539    -5.977987     6.527435    1.7306019 
 3640000   0.80079555  -0.10101688   0.56618638    1.1825688   -5.9626099    6.5287962    1.7487552 
 3650000   0.80195018  -0.20954996   0.55447786    1.1842739   -5.9754945    6.5299724    1.7387518 
 3660000   0.80626481 -0.068839121   0.55745796    1.1906455   -5.9683821      6.52584    1.7481035 
 3670000    0.7965161  -0.23773209   0.55257292    1.1762492   -5.9731887    6.5257616    1.7288221 
 3680000   0.80290353  -0.22527412   0.55466877    1.1856818   -5.9719855    6.5266543    1.7403505 
 3690000   0.80143382  -0.25069261   0.54907528    1.1835114   -5.9791854    6.5282607    1.7325867 
 3700000   0.80035106  -0.18828013   0.55754657    1.1819124   -5.9682833    6.5258299     1.739459 
 3710000   0.80418175  -0.22767255    0.5505785    1.1875694   -5.9788873    6.5294658    1.7381479 
 3720000   0.79951197  -0.18655557   0.54554526    1.1806733   -5.9816501    6.5271953    1.7262186 
 3730000   0.79158688  -0.22206842   0.55144139      1.16897   -5.9724906     6.523932    1.7204114 
 3740000   0.80453583  -0.24458673   0.54812973    1.1880922     -5.97796    6.5260897     1.736222 
 3750000   0.80467686  -0.19411317   0.55842877    1.1883005   -5.9711869    6.5296156    1.7467293 
 3760000   0.79875438  -0.24972249   0.55324456    1.1795545   -5.9760784    6.5293229    1.7327991 
 3770000    0.8011827  -0.21582371   0.56008957    1.1831405   -5.9672128    6.5273023    1.7432301 
 3780000   0.79757387  -0.25530721   0.55974005    1.1778112   -5.9704839     6.530224    1.7375513 
 3790000   0.79893964   -0.2624607   0.55791773    1.1798281   -5.9730885    6.5310062    1.7377458 
 3800000   0.79748292  -0.24686721   0.55634854    1.1776769   -5.9720257    6.5283742    1.7340254 
 3810000   0.80118487  -0.20777514    0.5485007    1.1831437   -5.9772013     6.525702    1.7316444 
 3820000   0.79958913  -0.22573447    0.5572341    1.1807872   -5.9705678    6.5278019    1.7380214 
 3830000   0.80735842  -0.15020736    0.5643155    1.1922605   -5.9657821    6.5300975     1.756576 
 3840000   0.79813631  -0.27635614   0.55467611    1.1786418   -5.9730025    6.5276786    1.7333179 
 3850000   0.79462107  -0.16311441   0.56334463    1.1734507   -5.9636537    6.5269984    1.7367953 
 3860000    0.7918702  -0.19429233   0.54829321    1.1693884   -5.9803649    6.5286581    1.7176816 
 3870000   0.80317033  -0.21776318   0.55135711    1.1860758   -5.9735797    6.5249368    1.7374329 
 3880000   0.80045257  -0.15138893   0.55740242    1.1820623   -5.9706596     6.528062    1.7394647 
 3890000   0.80315703  -0.23612076   0.55919812    1.1860561   -5.9689155    6.5281136    1.7452542 
 3900000   0.80242494  -0.20669621   0.55648595     1.184975   -5.9723578    6.5288437    1.7414609 
 3910000    0.8092963  -0.21782637   0.55004563    1.1951222   -5.9762298    6.5262754    1.7451679 
 3920000   0.79440783 -0.096210662   0.56253695    1.1731358    -5.963254    6.5257909    1.7356727 
 3930000   0.79518224  -0.25858129   0.55514025    1.1742794   -5.9736673    6.5288076    1.7294197 
 3940000   0.79911569  -0.22583452   0.55704153    1.1800881   -5.9696838    6.5267253    1.7371296 
 3950000   0.79961606  -0.20764337    0.5530844     1.180827   -5.9742507    6.5273351    1.7339114 
 3960000   0.79896374  -0.21203495    0.5475403    1.1798637    -5.981878    6.5294183     1.727404 
 3970000   0.79920125  -0.20588434    0.5549747    1.1802145   -5.9703788    6.5253535    1.7351891 
 3980000   0.80213988  -0.21327813   0.55487172     1.184554   -5.9724483      6.52732    1.7394258 
 3990000   0.80596876  -0.21829425   0.55637368    1.1902083   -5.9717932    6.5281669     1.746582 
 4000000   0.80190879  -0.18785442   0.55666495    1.1842128   -5.9732086    6.5298736    1.7408777 
 4010000   0.80066056  -0.20459392   0.55090523    1.1823695   -5.9755852    6.5264904    1.7332747 
 4020000   0.80248849   -0.1446998   0.56548722    1.1850688    -5.961793    6.5272802    1.7505561 
 4030000   0.80213677  -0.22193647   0.55792459    1.1845495   -5.9682438    6.5261683     1.742474 
 4040000   0.79772826  -0.22883235   0.55926994    1.1780392   -5.9665555    6.5258255    1.7373092 
 4050000   0.79590358  -0.18421381    0.5587895    1.1753446   -5.9696261    6.5284156    1.7341341 
 4060000   0.80207591  -0.20925658   0.55157973    1.1844596   -5.9749187    6.5264984    1.7360393 
 4070000   0.79602939  -0.20292059   0.55456874    1.1755304   -5.9734624    6.5280312    1.7300992 
 4080000   0.79894829  -0.25988842   0.55002639    1.1798409   -5.9770229    6.5270493    1.7298673 
 4090000   0.79263382  -0.15222115   0.54889482     1.170516   -5.9742699    6.5231647    1.7194109 
 4100000   0.79601733  -0.20780906   0.55101683    1.1755126   -5.9751794    6.5261962    1.7265295 
 4110000     0.800841  -0.21073406   0.55468343    1.1826359     -5.97432    6.5290034    1.7373194 
 4120000   0.80080325  -0.26275118   0.55567091    1.1825802   -5.9706248    6.5262957    1.7382511 
 4130000   0.80251109   -0.1728278   0.55884463    1.1851022   -5.9698183    6.5286629    1.7439469 
 4140000   0.79638566  -0.18460386   0.55577393    1.1760565   -5.9675998    6.5233737    1.7318305 
 4150000   0.79479667  -0.22779873   0.55415994      1.17371   -5.9749094    6.5290693      1.72787 
 4160000   0.80010245  -0.18362527    0.5554246    1.1815453   -5.9693917    6.5248164    1.7369699 
 4170000   0.80356165  -0.16793204   0.55825189    1.1866536    -5.969152    6.5274039    1.7449055 
 4180000   0.79885854  -0.22287962   0.54850225    1.1797083   -5.9745529    6.5230552    1.7282106 
 4190000   0.80101173  -0.24799687   0.55321581    1.1828881   -5.9748069    6.5280227    1.7361039 
 4200000   0.80354082   -0.2185827   0.55998216    1.1866229   -5.9670061    6.5269882     1.746605 
 4210000   0.80238124  -0.15542378   0.55511059    1.1849105   -5.9757799    6.5308904    1.7400211 
 4220000   0.80599807  -0.23493052   0.55707212    1.1902516    -5.970269    6.5273412    1.7473237 
 4230000   0.80052568  -0.23026055   0.54848605    1.1821703   -5.9767252    6.5252113    1.7306563 
 4240000   0.79979671  -0.17642424   0.55744668    1.1810938   -5.9703113     6.527758    1.7385405 
 4250000   0.79773627  -0.20873382   0.55682584     1.178051   -5.9716583    6.5284841    1.7348769 
 4260000   0.79987356  -0.22519034   0.55025604    1.1812073   -5.9766067    6.5268627    1.7314633 
 4270000   0.79864621  -0.19309322   0.55628366    1.1793948   -5.9716639    6.5279476    1.7356785 
 4280000     0.796978  -0.17416435   0.56126683    1.1769313   -5.9662978    6.5275647    1.7381981 
 4290000   0.80021831  -0.22809138   0.56759364    1.1817164   -5.9630141    6.5306077      1.74931 
 4300000   0.79064384  -0.29965391   0.55332288    1.1675774   -5.9742446    6.5275675    1.7209002 
 4310000   0.79945977  -0.23550541   0.55707142    1.1805962    -5.972752    6.5298235    1.7376676 
 4320000   0.79385725  -0.15344745   0.56138073    1.1723227   -5.9662715    6.5276523    1.7337035 
 4330000   0.80263707   -0.1907404   0.55507422    1.1852883    -5.971706    6.5267803    1.7403625 
 4340000   0.79160227  -0.20918916   0.55818287    1.1689927   -5.9693646    6.5275475    1.7271756 
 4350000   0.79657464  -0.25127522   0.55522647    1.1763356   -5.9701049    6.5253314    1.7315621 
 4360000   0.80174933  -0.24672499   0.55619459    1.1839773   -5.9707136    6.5269082    1.7401719 
 4370000   0.79681274  -0.28398253   0.54510396    1.1766872   -5.9787886    6.5238926    1.7217912 
 4380000   0.79306389  -0.19861721   0.56374557    1.1711511   -5.9646959    6.5284415    1.7348967 
 4390000    0.7992638   -0.2251488    0.5534442    1.1803068   -5.9738093    6.5272535     1.733751 
 4400000    0.7994512  -0.18094592   0.55615295    1.1805836   -5.9692168    6.5253697    1.7367365 
 4410000   0.79575617  -0.15035829   0.55552169     1.175127   -5.9714457    6.5269674    1.7306486 
 4420000   0.79765552  -0.16800284   0.56095955    1.1779318    -5.968409    6.5293686    1.7388914 
 4430000   0.79944079  -0.16291372   0.54840264    1.1805682   -5.9796263    6.5280289    1.7289708 
 4440000   0.79983915   -0.1489628   0.56293916    1.1811565   -5.9675731    6.5305122    1.7440956 
 4450000   0.79879575  -0.21158624   0.55834285    1.1796156   -5.9705609    6.5289037    1.7379585 
 4460000   0.80653608  -0.14303889   0.55520721    1.1910461   -5.9721589    6.5273661    1.7462533 
 4470000   0.79920855  -0.18165268   0.55649337    1.1802252   -5.9723266      6.52882    1.7367186 
 4480000   0.79825151  -0.28844727   0.54674173    1.1788119   -5.9818228    6.5285645    1.7255537 
 4490000   0.80494542  -0.16129156   0.54908098    1.1886971   -5.9760644    6.5251454    1.7377781 
 4500000   0.80868022  -0.19985582   0.55220855    1.1942124   -5.9717061    6.5239146     1.746421 
 4510000   0.79927493  -0.20586251   0.55160174    1.1803233   -5.9748399    6.5264416     1.731925 
 4520000   0.80656835  -0.18872464   0.54442665    1.1910938   -5.9801907    6.5246173    1.7355204 
 4530000   0.79587276  -0.21180048   0.54988793    1.1752991   -5.9783838    6.5282717    1.7251871 
 4540000    0.8023772  -0.15472887   0.55839709    1.1849045   -5.9683311    6.5267282    1.7433016 
 4550000   0.78903649  -0.20060345   0.55853738    1.1652037   -5.9662488    6.5247861    1.7237411 
 4560000   0.79739167  -0.15726493   0.56506545    1.1775422   -5.9644039    6.5294694    1.7426076 
 4570000   0.80257355  -0.21486831   0.54761914    1.1851945   -5.9785852    6.5262044    1.7328136 
 4580000   0.80599896  -0.23012873   0.54475096    1.1902529    -5.981569      6.52632    1.7350039 
 4590000   0.79685483  -0.22556969   0.55232656    1.1767494   -5.9736141    6.5259407    1.7290759 
 4600000    0.7955268   -0.1925874   0.54988593    1.1747882   -5.9725916    6.5224775    1.7246742 
 4610000   0.80268214  -0.19493768   0.54983417    1.1853548   -5.9785906    6.5284248     1.735189 
 4620000   0.80303927  -0.18892267   0.56182704    1.1858822   -5.9705903    6.5324173    1.7477092 
 4630000   0.79632979  -0.24482955   0.55137937     1.175974   -5.9759259    6.5273052    1.7273534 
 4640000   0.80139723  -0.18908582   0.56130131    1.1834573   -5.9719693    6.5332707    1.7447587 
 4650000   0.79550335  -0.18348059   0.55872113    1.1747536   -5.9675686    6.5262897    1.7334747 
 4660000   0.79963373  -0.26301943   0.55082681    1.1808531   -5.9774398    6.5282666    1.7316799 
 4670000   0.80665231  -0.16303505   0.55487315    1.1912177   -5.9715647    6.5264379    1.7460909 
 4680000   0.79820862  -0.23046807   0.54909735    1.1787486   -5.9773594    6.5264567    1.7278459 
 4690000   0.80012348  -0.20599915    0.5575621    1.1815763   -5.9710127    6.5285748    1.7391384 
 4700000   0.78864817  -0.23512404   0.55716842    1.1646303   -5.9691476     6.526316    1.7217987 
 4710000   0.79612186  -0.17759385   0.54570016     1.175667   -5.9836116    6.5293117    1.7213671 
 4720000   0.80457853  -0.23933554    0.5513709    1.1881553   -5.9769706    6.5283415    1.7395262 
 4730000   0.80371494  -0.15998509   0.55686994      1.18688   -5.9718454    6.5287153    1.7437499 
 4740000   0.79379968  -0.18047316   0.55259877    1.1722377   -5.9747006    6.5272994    1.7248365 
 4750000    0.8047479  -0.30471946   0.54588596    1.1884054   -5.9819815    6.5278674    1.7342914 
 4760000   0.79971274  -0.24046213   0.56047913    1.1809698   -5.9657924    6.5262715    1.7414489 
 4770000   0.79527927  -0.16337234   0.55844249    1.1744227   -5.9689336    6.5273761    1.7328652 
 4780000   0.80130513  -0.16964812   0.55662028    1.1833213   -5.9701504    6.5267706    1.7399416 
 4790000   0.79915737   -0.2053483   0.55531697    1.1801496   -5.9706432    6.5259602    1.7354666 
 4800000   0.80005755  -0.22042298   0.55357507     1.181479   -5.9742954    6.5278705    1.7350541 
 4810000   0.80129849  -0.18766755    0.5568394    1.1833115   -5.9720142    6.5288536    1.7401509 
 4820000   0.79815643   -0.2682274   0.55627653    1.1786715   -5.9727436    6.5290201     1.734948 
 4830000   0.80477396  -0.23639971   0.55601804    1.1884439    -5.971994     6.528012    1.7444619 
 4840000    0.8003868  -0.24670519   0.54814658    1.1819652   -5.9787671    6.5269137    1.7301118 
 4850000   0.80049662  -0.18784056   0.56066463    1.1821274   -5.9682052    6.5288698     1.742792 
 4860000   0.79696001  -0.20540499   0.56137648    1.1769047    -5.968886    6.5302625    1.7382812 
 4870000   0.80178684  -0.26501264   0.55296484    1.1840327   -5.9744532     6.527418    1.7369975 
 4880000   0.80456748  -0.27278277   0.54483678     1.188139   -5.9829373     6.527774    1.7329758 
 4890000   0.79013734  -0.22456828   0.56378157    1.1668294   -5.9647952    6.5285767     1.730611 
 4900000    0.7951042  -0.11491281   0.55429321    1.1741642   -5.9760511    6.5303443    1.7284574 
 4910000   0.80143843  -0.15315565   0.56350173    1.1835182    -5.962486    6.5259877    1.7470199 
 4920000   0.79803029  -0.21495809   0.54952953    1.1784852   -5.9790805    6.5286101    1.7280148 
 4930000   0.78875852   -0.2716994   0.54798417    1.1647932   -5.9792324    6.5272165    1.7127774 
 4940000   0.80810356  -0.16443051   0.55507985    1.1933609   -5.9727077    6.5277875    1.7484407 
 4950000   0.80135688  -0.19758697    0.5494619    1.1833978   -5.9761001     6.525562    1.7328597 
 4960000   0.79585066  -0.22079897   0.55675768    1.1752665   -5.9699479    6.5267056    1.7320242 
 4970000   0.80783324  -0.16990856   0.55931107    1.1929617   -5.9669343    6.5262454    1.7522727 
 4980000    0.7957169  -0.19494306   0.55199916     1.175069    -5.972724    6.5247232    1.7270681 
 4990000   0.80510021  -0.14347961    0.5546353    1.1889257   -5.9692495    6.5238848     1.743561 
 5000000   0.80569732  -0.27009418   0.54866902    1.1898075   -5.9762689    6.5249379    1.7384765 
 5010000   0.80433562  -0.18720386   0.55396371    1.1877966   -5.9715518    6.5255155    1.7417603 
 5020000   0.79402405   -0.1573604   0.55781065     1.172569   -5.9698315    6.5276421    1.7303797 
 5030000   0.80173204  -0.12146276   0.56308062    1.1839518   -5.9653634     6.528444    1.7470324 
 5040000   0.80803805  -0.22504109   0.54749631    1.1932641   -5.9806378    6.5281341    1.7407604 
 5050000    0.8010665  -0.19181946   0.54937504    1.1829689   -5.9793278    6.5287028     1.732344 
 5060000   0.80273937  -0.20757717   0.55820652    1.1854393   -5.9723436    6.5305501    1.7436459 
 5070000   0.80654607  -0.15970631   0.55177582    1.1910609    -5.972908    6.5246838    1.7428367 
 5080000   0.80283068  -0.20150475   0.55183608    1.1855742   -5.9751586    6.5269946    1.7374103 
 5090000   0.80370453  -0.22668632   0.54898556    1.1868646   -5.9761504    6.5251359    1.7358502 
 5100000   0.80386047  -0.24432949   0.55310614    1.1870949   -5.9739065    6.5270126    1.7402011 
 5110000   0.80304018  -0.18261915   0.54911494    1.1858836   -5.9785617    6.5276766    1.7349985 
 5120000    0.7951797  -0.22909019   0.55769458    1.1742757    -5.971414    6.5291086    1.7319702 
 5130000   0.79533711   -0.1812483   0.55616283    1.1745081   -5.9680184    6.5241812    1.7306709 
 5140000    0.8033504  -0.20012802   0.54702673    1.1863417   -5.9765037    6.5235304    1.7333684 
 5150000   0.80505643  -0.17632504   0.55566555     1.188861   -5.9714063    6.5270718    1.7445266 
 5160000    0.7997197  -0.22242756    0.5502527    1.1809801   -5.9780037    6.5282564    1.7312328 
 5170000   0.79094443  -0.23438436    0.5587965    1.1680212   -5.9669796    6.5257761    1.7268177 
 5180000   0.79898395  -0.24031682   0.54510683    1.1798936   -5.9792893    6.5243962    1.7250004 
 5190000   0.79777218  -0.19624757   0.55718073    1.1781041   -5.9721331    6.5293139    1.7352848 
 5200000   0.79400725  -0.21958878   0.54845937    1.1725442   -5.9781739    6.5266332    1.7210036 
 5210000   0.79479544  -0.19517346     0.552778    1.1737082   -5.9749611    6.5277391    1.7264862 
 5220000   0.80321635  -0.17528388   0.55361864    1.1861437   -5.9730753     6.526694    1.7397624 
 5230000   0.80458263  -0.20014146   0.55575775    1.1881614   -5.9721563     6.527914    1.7439191 
 5240000   0.80077928  -0.19254466   0.54784087    1.1825448   -5.9811093    6.5289502    1.7303857 
 5250000   0.80363343   -0.1858351   0.55898151    1.1867596   -5.9708371    6.5298186    1.7457412 
 5260000   0.80034348  -0.21509157   0.55406005    1.1819012   -5.9752798    6.5293399    1.7359613 
 5270000   0.79364901  -0.18871596   0.54484435    1.1720152   -5.9801563    6.5250007    1.7168596 
 5280000   0.79996184  -0.22974266   0.54816699    1.1813376   -5.9796302    6.5277972    1.7295046 
 5290000   0.80234476  -0.20234043   0.55129165    1.1848566   -5.9757346    6.5270263    1.7361482 
 5300000   0.79815702  -0.16075358   0.55403067    1.1786724   -5.9761814    6.5302121    1.7327031 
 5310000   0.79678184   -0.1864009   0.55936167    1.1766416   -5.9670075    6.5263692    1.7360033 
 5320000   0.80145384   -0.1805447   0.55590663    1.1835409   -5.9693842    6.5252908    1.7394476 
 5330000   0.79884238  -0.26520289   0.54628638    1.1796845   -5.9784266     6.524713    1.7259709 
 5340000   0.79177682   -0.1983184   0.55246905    1.1692505   -5.9745215    6.5269906    1.7217195 
 5350000   0.80093075  -0.19806551    0.5580307    1.1827685    -5.968518    6.5265487    1.7407992 
 5360000   0.79633111  -0.28148621   0.54809468     1.175976    -5.979924    6.5280187    1.7240707 
 5370000   0.80075772  -0.19664513   0.55189717     1.182513   -5.9746312    6.5265284    1.7344101 
 5380000   0.80197651  -0.20533959   0.54925786    1.1843128   -5.9746129    6.5238707    1.7335706 
 5390000   0.80249261  -0.24715286   0.54883051    1.1850749   -5.9767815     6.525612    1.7339054 
 5400000   0.79843719  -0.24092135   0.54468623    1.1790861   -5.9837422    6.5284284    1.7237724 
 5410000   0.80633274  -0.21540938   0.55180225    1.1907458   -5.9756573    6.5274596    1.7425481 
 5420000   0.79479059  -0.23693496   0.55379608     1.173701   -5.9729478    6.5267439    1.7274971 
 5430000    0.7935882  -0.21438985   0.54682037    1.1719254   -5.9774963    6.5243167    1.7187458 
 5440000   0.80158787  -0.13428384   0.56200104    1.1837389   -5.9660487    6.5280497    1.7457399 
 5450000   0.80059595  -0.19154258   0.55359636    1.1822741   -5.9742034    6.5277997    1.7358704 
 5460000   0.80083254  -0.20251575   0.55909936    1.1826234   -5.9693014    6.5284008    1.7417228 
 5470000   0.79741945  -0.18051714   0.55737127    1.1775832   -5.9730049    6.5303761    1.7349545 
 5480000   0.80568372  -0.24384205   0.55385789    1.1897874   -5.9768683    6.5307261    1.7436453 
 5490000   0.80376649  -0.21104872   0.55402782    1.1869561   -5.9775553    6.5315831     1.740984 
 5500000   0.80482553  -0.17668716   0.56372922    1.1885201   -5.9639414    6.5276706    1.7522493 
 5510000   0.80274342  -0.23174716   0.55023807    1.1854453   -5.9774487    6.5276868    1.7356834 
 5520000   0.79481511   -0.2047656   0.56156168    1.1737372   -5.9674546    6.5290163    1.7352989 
 5530000   0.79074165  -0.19552184     0.555436    1.1677218   -5.9718225    6.5272585    1.7231578 
 5540000   0.80649937  -0.20335358   0.55730129    1.1909919   -5.9693767     6.526678    1.7482932 
 5550000   0.80417601   -0.2146745   0.54438991    1.1875609   -5.9837075    6.5280974    1.7319508 
 5560000   0.80030194  -0.25935669   0.55230055    1.1818399   -5.9752372    6.5275377    1.7341404 
 5570000   0.79201936  -0.20719353   0.54763534    1.1696086   -5.9808013    6.5284367     1.717244 
 5580000   0.80051114  -0.18416626   0.55801516    1.1821488   -5.9697076    6.5277228     1.740164 
 5590000   0.80134489  -0.21399203   0.55647064    1.1833801   -5.9751906    6.5316612    1.7398507 
 5600000   0.79853998  -0.20792839   0.55355189    1.1792379   -5.9727661     6.526318    1.7327898 
 5610000   0.80333813  -0.22250724   0.55787553    1.1863235    -5.970957    6.5288325    1.7441991 
 5620000    0.7927812  -0.19931738   0.55821248    1.1707337   -5.9696848    6.5278972    1.7289462 
 5630000    0.7949569  -0.21750194    0.5455516    1.1739466   -5.9809007    6.5264523    1.7194982 
 5640000   0.80123217  -0.13032469   0.56755116    1.1832136   -5.9638982    6.5314493    1.7507647 
 5650000   0.79936614  -0.24384192   0.55059842    1.1804579   -5.9757776     6.526376    1.7310564 
 5660000   0.80735714  -0.15584143   0.56050358    1.1922586   -5.9672192    6.5277228    1.7527622 
 5670000   0.80116805  -0.24317556   0.55930002    1.1831189   -5.9687827    6.5280828    1.7424189 
 5680000   0.80066753  -0.20490174   0.55135148    1.1823798   -5.9726738    6.5240252    1.7337312 
 5690000   0.80483696  -0.20428099   0.55174149    1.1885369   -5.9762842    6.5280257    1.7402784 
 5700000    0.8006824  -0.21899624   0.56435022    1.1824017   -5.9636255    6.5279757    1.7467519 
 5710000   0.79918737  -0.20754746    0.5570363    1.1801939   -5.9708091    6.5278454    1.7372302 
 5720000   0.79558104   -0.2266706   0.54878762    1.1748683   -5.9785882    6.5273758     1.723656 
 5730000   0.80144671  -0.25418779    0.5565842    1.1835304   -5.9733261    6.5299103    1.7401146 
 5740000   0.79681429  -0.21908927   0.55137739    1.1766895   -5.9775416     6.528919    1.7280669 
 5750000    0.7954291  -0.22941259   0.55569422     1.174644   -5.9722726    6.5279668    1.7303382 
 5760000   0.79788999  -0.22642072    0.5492469    1.1782781    -5.978232    6.5274789     1.727525 
 5770000   0.79578918  -0.20187649    0.5532784    1.1751757   -5.9728965    6.5261749    1.7284541 
 5780000   0.80027976  -0.21942352   0.55629096    1.1818071    -5.969459    6.5257499    1.7380981 
 5790000   0.79469941   -0.1929453   0.55342803    1.1735664   -5.9738373    6.5272653    1.7269944 
 5800000   0.80613255  -0.23799807   0.55458548    1.1904502   -5.9732775    6.5278629    1.7450357 
 5810000   0.80195611 -0.088595743   0.55949971    1.1842827   -5.9694599    6.5289597    1.7437824 
 5820000   0.79592609  -0.21079943   0.55375582    1.1753779   -5.9744076    6.5281634    1.7291337 
 5830000   0.80621977  -0.20649801    0.5517149     1.190579   -5.9753374    6.5270523    1.7422939 
 5840000   0.79729173  -0.15583362   0.56427266    1.1773946    -5.962847    6.5271197    1.7416672 
 5850000   0.79861156  -0.23123916   0.55822006    1.1793436   -5.9729843    6.5312044    1.7375637 
 5860000   0.79178298  -0.16710555    0.5595793    1.1692596   -5.9668036    6.5263829    1.7288389 
 5870000   0.79575818  -0.24184234   0.55083755    1.1751299   -5.9761802    6.5270177    1.7259675 
 5880000   0.79524644  -0.30874523   0.55346062    1.1743742   -5.9761656    6.5296262    1.7278348 
 5890000   0.80358002  -0.23200863   0.54640806    1.1866808   -5.9764818    6.5228899    1.7330888 
 5900000   0.79636878  -0.19279616   0.55460587    1.1760316    -5.972742    6.5273478    1.7306375 
 5910000   0.80349137  -0.28102458   0.54993733    1.1865498   -5.9757688    6.5257061    1.7364872 
 5920000   0.79864016  -0.13497636    0.5518397    1.1793859   -5.9731444     6.524984    1.7312256 
 5930000   0.79848629  -0.22364791   0.54979764    1.1791586    -5.978055    6.5278527    1.7289563 
 5940000   0.80270593  -0.18703181   0.55806846    1.1853899   -5.9698133    6.5278817    1.7434584 
 5950000   0.79800442   -0.1885601   0.55315287     1.178447   -5.9733923    6.5265452    1.7315999 
 5960000    0.7980618  -0.20571429   0.55224167    1.1785318   -5.9762402    6.5284819    1.7307734 
 5970000   0.80227903  -0.18446108   0.55869097    1.1847595   -5.9699208    6.5286118    1.7434505 
 5980000   0.79190144  -0.13219264   0.56128061    1.1694345    -5.964956    6.5262366    1.7307151 
 5990000   0.80303862  -0.17418286   0.56411869    1.1858813   -5.9656491    6.5297678    1.7499999 
 6000000   0.80364928  -0.18175071   0.55237926     1.186783    -5.974499    6.5268783    1.7391623 
Loop time of 71856.4 on 216 procs for 6000000 steps with 27475 atoms

Performance: 36071.927 tau/day, 83.500 timesteps/s
99.9% CPU use with 216 MPI tasks x 1 OpenMP threads

MPI task timing breakdown:
Section |  min time  |  avg time  |  max time  |%varavg| %total
---------------------------------------------------------------
Pair    | 1119.5     | 1226       | 1588.9     | 226.0 |  1.71
Bond    | 16.873     | 20.446     | 27.81      |  37.6 |  0.03
Kspace  | 64556      | 64965      | 65152      |  38.8 | 90.41
Neigh   | 641.14     | 682.13     | 721.39     |  65.9 |  0.95
Comm    | 1344.6     | 1623.7     | 1931.7     | 300.5 |  2.26
Output  | 3.0564     | 3.1029     | 3.1114     |   0.3 |  0.00
Modify  | 2735.3     | 2873.2     | 3065.9     | 137.6 |  4.00
Other   |            | 463        |            |       |  0.64

Nlocal:    127.199 ave 168 max 115 min
Histogram: 35 66 67 28 8 2 4 3 1 2
Nghost:    950.028 ave 1042 max 906 min
Histogram: 19 43 62 34 17 14 14 5 6 2
Neighs:    4652.69 ave 8062 max 3965 min
Histogram: 74 92 26 9 5 3 3 2 1 1

Total # of neighbors = 1004980
Ave neighs/atom = 36.578
Ave special neighs/atom = 0.633303
Neighbor list builds = 806579
Dangerous builds = 0
System init for write_restart ...
PPPM initialization ...
  using 12-bit tables for long-range coulomb (src/kspace.cpp:332)
  G vector (1/distance) = 1.20772
  grid = 108 108 108
  stencil order = 5
  estimated absolute RMS force accuracy = 0.000134208
  estimated relative force accuracy = 0.000134208
  using double precision FFTW3
  3d grid and FFT values/proc = 15625 5832
WARNING: Neighbor exclusions used with KSpace solver may give inconsistent Coulombic energies (src/neighbor.cpp:486)
Neighbor list info ...
  update every 1 steps, delay 0 steps, check yes
  max neighbors/atom: 2000, page size: 100000
  master list distance cutoff = 2.8
  ghost atom cutoff = 2.8
  binsize = 1.4, bins = 24 24 24
  7 neighbor lists, perpetual/occasional/extra = 2 5 0
  (1) pair lj/cut, perpetual
      attributes: half, newton on
      pair build: half/bin/newton
      stencil: half/bin/3d/newton
      bin: standard
  (2) pair coul/long, perpetual, skip from (1)
      attributes: half, newton on
      pair build: skip
      stencil: none
      bin: none
  (3) compute rdf, occasional, copy from (1)
      attributes: half, newton on
      pair build: copy
      stencil: none
      bin: none
  (4) compute rdf, occasional, copy from (1)
      attributes: half, newton on
      pair build: copy
      stencil: none
      bin: none
  (5) compute rdf, occasional, copy from (1)
      attributes: half, newton on
      pair build: copy
      stencil: none
      bin: none
  (6) compute rdf, occasional, copy from (1)
      attributes: half, newton on
      pair build: copy
      stencil: none
      bin: none
  (7) compute rdf, occasional, copy from (1)
      attributes: half, newton on
      pair build: copy
      stencil: none
      bin: none
PPPM initialization ...
  using 12-bit tables for long-range coulomb (src/kspace.cpp:332)
  G vector (1/distance) = 1.20772
  grid = 108 108 108
  stencil order = 5
  estimated absolute RMS force accuracy = 0.000134208
  estimated relative force accuracy = 0.000134208
  using double precision FFTW3
  3d grid and FFT values/proc = 15625 5832
WARNING: Neighbor exclusions used with KSpace solver may give inconsistent Coulombic energies (src/neighbor.cpp:486)
Neighbor list info ...
  update every 1 steps, delay 0 steps, check yes
  max neighbors/atom: 2000, page size: 100000
  master list distance cutoff = 2.8
  ghost atom cutoff = 2.8
  binsize = 1.4, bins = 24 24 24
  7 neighbor lists, perpetual/occasional/extra = 2 5 0
  (1) pair lj/cut, perpetual
      attributes: half, newton on
      pair build: half/bin/newton
      stencil: half/bin/3d/newton
      bin: standard
  (2) pair coul/long, perpetual, skip from (1)
      attributes: half, newton on
      pair build: skip
      stencil: none
      bin: none
  (3) compute rdf, occasional, copy from (1)
      attributes: half, newton on
      pair build: copy
      stencil: none
      bin: none
  (4) compute rdf, occasional, copy from (1)
      attributes: half, newton on
      pair build: copy
      stencil: none
      bin: none
  (5) compute rdf, occasional, copy from (1)
      attributes: half, newton on
      pair build: copy
      stencil: none
      bin: none
  (6) compute rdf, occasional, copy from (1)
      attributes: half, newton on
      pair build: copy
      stencil: none
      bin: none
  (7) compute rdf, occasional, copy from (1)
      attributes: half, newton on
      pair build: copy
      stencil: none
      bin: none
Setting up Verlet run ...
  Unit style    : lj
  Current step  : 6000000
  Time step     : 0.005
Per MPI rank memory allocation (min/avg/max) = 18.23 | 19.46 | 20.23 Mbytes
Step Lx Ly Lz Press Pxx Pyy Pzz PotEng Temp 
 6000000    32.362914    32.362914    32.362914  -0.55179721  -0.43139121  -0.69582154   -0.5281789   0.55237926   0.80364928 
 6000010    33.010173     32.04406     32.04406  -0.16473545   -1.1902304    0.3444155   0.35160851   0.57009144   0.80592246 
 6000020    33.657431    31.734449    31.734449  -0.13011491   -1.3304372   0.46552021   0.47457224   0.58551583   0.82275182 
 6000030    34.304689    31.433641    31.433641  0.015313066   -1.3701771   0.69101832   0.72509802   0.61194022   0.83418009 
 6000040    34.951948    31.141229    31.141229   0.18601075   -1.2719556   0.91640125    0.9135866   0.63840665   0.84805407 
 6000050    35.599206    30.856828    30.856828   0.24440122   -1.2475786   0.98121363   0.99956863   0.65395827   0.86897249 
 6000060    36.246464     30.58008     30.58008   0.25296763   -1.2977218    1.0135059    1.0431188    0.6730156   0.88746398 
 6000070    36.893722    30.310647    30.310647   0.35638439   -1.0696109     1.059318     1.079446   0.69012162   0.90546155 
 6000080    37.540981    30.048212    30.048212   0.50301046  -0.85832853    1.2089164    1.1584435   0.70228812   0.92335021 
 6000090    38.188239    29.792478    29.792478   0.61795432  -0.81851201    1.4036709    1.2687041   0.72266073   0.93496089 
 6000100    38.835497    29.543164    29.543164   0.57143203  -0.82651533    1.3446442    1.1961672   0.73358146   0.95175563 
Loop time of 1.53548 on 216 procs for 100 steps with 27475 atoms

Performance: 28134.580 tau/day, 65.126 timesteps/s
99.9% CPU use with 216 MPI tasks x 1 OpenMP threads

MPI task timing breakdown:
Section |  min time  |  avg time  |  max time  |%varavg| %total
---------------------------------------------------------------
Pair    | 0.015127   | 0.019997   | 0.039734   |   2.5 |  1.30
Bond    | 0.0001874  | 0.0002588  | 0.00040007 |   0.0 |  0.02
Kspace  | 1.0377     | 1.0622     | 1.0794     |   0.8 | 69.18
Neigh   | 0.04213    | 0.045314   | 0.04804    |   0.5 |  2.95
Comm    | 0.042619   | 0.059236   | 0.078157   |   3.1 |  3.86
Output  | 0.011566   | 0.015626   | 0.018378   |   0.6 |  1.02
Modify  | 0.18028    | 0.19937    | 0.24672    |   1.9 | 12.98
Other   |            | 0.1335     |            |       |  8.69

Nlocal:    127.199 ave 167 max 114 min
Histogram: 29 57 76 31 11 1 6 2 1 2
Nghost:    956.116 ave 1078 max 909 min
Histogram: 20 66 52 37 14 13 7 6 0 1
Neighs:    4669.5 ave 8077 max 3874 min
Histogram: 45 99 46 11 4 4 4 2 0 1

Total # of neighbors = 1008611
Ave neighs/atom = 36.7101
Ave special neighs/atom = 0.633303
Neighbor list builds = 49
Dangerous builds = 0
PPPM initialization ...
  using 12-bit tables for long-range coulomb (src/kspace.cpp:332)
  G vector (1/distance) = 1.21926
  grid = 125 108 108
  stencil order = 5
  estimated absolute RMS force accuracy = 0.000111297
  estimated relative force accuracy = 0.000111297
  using double precision FFTW3
  3d grid and FFT values/proc = 16875 6804
WARNING: Neighbor exclusions used with KSpace solver may give inconsistent Coulombic energies (src/neighbor.cpp:486)
Neighbor list info ...
  update every 1 steps, delay 0 steps, check yes
  max neighbors/atom: 2000, page size: 100000
  master list distance cutoff = 2.8
  ghost atom cutoff = 2.8
  binsize = 1.4, bins = 28 22 22
  7 neighbor lists, perpetual/occasional/extra = 2 5 0
  (1) pair lj/cut, perpetual
      attributes: half, newton on
      pair build: half/bin/newton
      stencil: half/bin/3d/newton
      bin: standard
  (2) pair coul/long, perpetual, skip from (1)
      attributes: half, newton on
      pair build: skip
      stencil: none
      bin: none
  (3) compute rdf, occasional, copy from (1)
      attributes: half, newton on
      pair build: copy
      stencil: none
      bin: none
  (4) compute rdf, occasional, copy from (1)
      attributes: half, newton on
      pair build: copy
      stencil: none
      bin: none
  (5) compute rdf, occasional, copy from (1)
      attributes: half, newton on
      pair build: copy
      stencil: none
      bin: none
  (6) compute rdf, occasional, copy from (1)
      attributes: half, newton on
      pair build: copy
      stencil: none
      bin: none
  (7) compute rdf, occasional, copy from (1)
      attributes: half, newton on
      pair build: copy
      stencil: none
      bin: none
Setting up Verlet run ...
  Unit style    : lj
  Current step  : 6000100
  Time step     : 0.005
Per MPI rank memory allocation (min/avg/max) = 18.33 | 19.59 | 20.36 Mbytes
Step Lx Ly Lz Press Pxx Pyy Pzz PotEng Temp 
 6000100    38.835497    29.543164    29.543164    0.4218196   -1.0630034    1.5507604   0.77770175   0.73842688   0.95175563 
 6010000    38.835497    29.543164    29.543164  -0.29888515  -0.32869404  -0.30713641  -0.26082499   0.55329571   0.79630932 
 6020000    38.835497    29.543164    29.543164  -0.23657587  -0.25498885   -0.2326544  -0.22208436   0.55298573   0.79062159 
 6030000    38.835497    29.543164    29.543164   -0.2728992   -0.2486583    -0.231588  -0.33845131   0.55729693   0.79521873 
 6040000    38.835497    29.543164    29.543164  -0.22892684   -0.2086081  -0.30123271  -0.17693972   0.54703247   0.80537752 
 6050000    38.835497    29.543164    29.543164  -0.23808819  -0.27632205  -0.23715296  -0.20078955   0.55675745   0.80009043 
 6060000    38.835497    29.543164    29.543164  -0.19630445  -0.14723752  -0.24893098  -0.19274484     0.551303   0.79437885 
 6070000    38.835497    29.543164    29.543164   -0.2149388  -0.19964669  -0.23406849  -0.21110121   0.55302698   0.80307769 
 6080000    38.835497    29.543164    29.543164  -0.24599038  -0.27210093  -0.23718099  -0.22868921    0.5429437    0.8019939 
 6090000    38.835497    29.543164    29.543164  -0.16178785  -0.11987264   -0.1728292  -0.19266172   0.55397021   0.80359428 
 6100000    38.835497    29.543164    29.543164  -0.19450707  -0.22564127  -0.14219219  -0.21568775   0.55932994   0.79576814 
 6100100    38.835497    29.543164    29.543164  -0.16569876  -0.18054706  -0.17689025  -0.13965899   0.56053947    0.7980807 
Loop time of 1350.14 on 216 procs for 100000 steps with 27475 atoms

Performance: 31996.586 tau/day, 74.066 timesteps/s
99.9% CPU use with 216 MPI tasks x 1 OpenMP threads

MPI task timing breakdown:
Section |  min time  |  avg time  |  max time  |%varavg| %total
---------------------------------------------------------------
Pair    | 16.117     | 20.202     | 39.075     |  79.4 |  1.50
Bond    | 0.22599    | 0.28763    | 0.45674    |   6.9 |  0.02
Kspace  | 1211.5     | 1239.4     | 1250.8     |  18.8 | 91.80
Neigh   | 11.176     | 11.907     | 12.55      |   8.2 |  0.88
Comm    | 26.21      | 34.958     | 61.297     |  89.4 |  2.59
Output  | 0.047066   | 0.04713    | 0.048739   |   0.1 |  0.00
Modify  | 28.921     | 33.567     | 40.484     |  36.1 |  2.49
Other   |            | 9.799      |            |       |  0.73

Nlocal:    127.199 ave 179 max 112 min
Histogram: 17 93 69 21 8 2 3 1 1 1
Nghost:    955.773 ave 1050 max 897 min
Histogram: 4 34 50 41 31 26 11 9 5 5
Neighs:    4654.14 ave 8860 max 3748 min
Histogram: 48 114 34 9 5 4 0 0 0 2

Total # of neighbors = 1005295
Ave neighs/atom = 36.5894
Ave special neighs/atom = 0.633303
Neighbor list builds = 13454
Dangerous builds = 0
Total wall time: 23:34:12
