ITEM: TIMESTEP
0
ITEM: NUMBER OF ATOMS
950
ITEM: BOX BOUNDS pp pp pp
7.1354277009520928e-01 3.3076457229894366e+01
7.1354277009520928e-01 3.3076457229894366e+01
7.1354277009520928e-01 3.3076457229894366e+01
ITEM: ATOMS id mol type x y z 
20675 0 5 3.08893 0.864999 1.23447 
26072 0 5 4.81313 5.2661 5.26946 
24971 0 5 2.9231 1.66342 7.80946 
23166 0 5 2.52137 3.71342 8.62153 
10814 0 5 2.39314 5.76605 7.9194 
12958 0 5 1.37398 1.9759 10.7786 
7604 0 5 2.08392 3.51727 11.1711 
3093 0 5 5.97611 4.46978 10.124 
23042 0 5 1.35363 1.211 13.2268 
13646 0 5 2.68713 2.45279 12.9763 
13859 0 5 4.57835 2.23804 13.1535 
8914 0 5 2.28514 2.68948 11.8912 
20579 0 5 2.30925 4.28755 16.5269 
16890 0 5 4.15828 2.70856 16.7087 
14244 0 5 3.14394 2.09406 18.1131 
17499 0 5 3.77514 3.77956 18.2915 
4819 0 5 2.15687 2.33683 18.7244 
26437 0 5 1.23458 5.47573 20.4748 
16626 0 5 5.2752 2.29373 20.5619 
22946 0 5 2.41876 4.34083 21.0945 
24310 0 5 4.42042 3.91203 23.359 
20056 0 5 1.75735 4.05888 24.798 
7683 0 5 0.899959 5.52776 25.1825 
15228 0 5 3.50696 5.33683 27.6538 
9454 0 5 5.48942 4.64135 26.3667 
18906 0 5 3.74161 4.38279 28.4896 
8617 0 5 1.78766 4.0503 29.5307 
21953 0 5 2.97661 4.25054 29.4834 
17249 0 5 5.73685 1.62333 33.0082 
1532 0 5 4.14723 2.78606 32.8852 
15448 0 5 3.29133 2.67547 31.2942 
12590 0 5 2.96837 6.21253 2.38069 
19080 0 5 3.38079 8.98901 1.00272 
4799 0 5 5.4108 8.18892 4.90128 
20354 0 5 4.63236 10.2752 5.29121 
13520 0 5 2.30465 10.276 7.76794 
17756 0 5 2.08935 7.8728 8.54873 
3605 0 5 3.41175 6.16968 8.26916 
19613 0 5 3.71358 9.33286 8.23759 
6932 0 5 3.32637 9.1927 13.2737 
3110 0 5 5.73131 6.59256 16.3468 
6757 0 5 4.40427 6.52859 15.6487 
17860 0 5 2.95614 7.11682 22.1143 
15376 0 5 1.05819 9.85092 21.8613 
2287 0 5 5.75981 7.03415 23.5322 
21889 0 5 3.46212 8.67366 24.8995 
7681 0 5 3.47931 10.0284 25.7863 
10428 0 5 4.82846 11.3569 25.7748 
7202 0 5 5.37222 9.54859 29.6469 
21374 0 5 5.57366 8.44881 32.4215 
16291 0 5 0.718874 11.465 31.8635 
10743 0 5 5.78722 11.3649 32.3749 
15969 0 5 0.883156 12.8751 1.65969 
898 0 5 3.57974 14.7682 3.94291 
17704 0 5 1.37759 15.0727 5.73905 
13932 0 5 3.11617 14.9838 4.93207 
9699 0 5 3.16578 14.3568 5.94242 
12881 0 5 3.08832 16.3926 5.77661 
9116 0 5 5.46348 16.5967 8.60433 
23927 0 5 1.15455 12.2143 10.4074 
17721 0 5 1.14519 16.1614 9.7126 
11807 0 5 5.20455 16.3907 10.0609 
15718 0 5 4.76262 15.1556 9.74026 
19292 0 5 4.94917 12.3218 17.8108 
16743 0 5 5.83152 14.0282 17.012 
19865 0 5 3.20693 15.1396 20.0927 
26816 0 5 4.33624 16.6862 19.5696 
14785 0 5 2.32676 14.4229 21.855 
11097 0 5 3.40233 14.4313 23.6605 
21139 0 5 2.39689 15.4339 23.6723 
25050 0 5 4.0291 12.2318 24.8346 
19070 0 5 3.94836 16.2221 25.5856 
7351 0 5 0.808556 14.5026 29.3639 
9320 0 5 2.83221 15.2846 28.8433 
14259 0 5 3.92205 15.6606 28.4033 
12925 0 5 4.84177 17.6219 3.005 
17451 0 5 0.781106 22.1978 2.67116 
9636 0 5 4.69942 19.4997 5.56099 
18080 0 5 1.03521 18.5691 6.4314 
1530 0 5 3.12038 18.0159 6.88716 
4016 0 5 3.48162 17.1815 7.64164 
5596 0 5 1.53682 22.0549 6.84067 
5168 0 5 5.07949 17.4713 9.51409 
20723 0 5 4.0203 17.5579 11.4593 
24627 0 5 4.7017 18.237 11.0662 
4305 0 5 2.29445 18.5573 12.2924 
12656 0 5 5.92237 20.2992 12.7154 
7350 0 5 4.3041 21.0596 12.8367 
3529 0 5 3.78058 21.7851 13.0484 
13765 0 5 5.48618 22.1388 12.0374 
7827 0 5 3.42786 17.1847 15.0164 
15098 0 5 3.09928 20.4594 13.5878 
26981 0 5 5.70317 17.2522 15.202 
18021 0 5 4.5525 18.2342 16.3863 
10119 0 5 3.04226 20.6037 17.3921 
4633 0 5 4.77447 21.951 18.0604 
18462 0 5 3.39494 19.0195 20.7481 
25220 0 5 4.61358 19.5509 21.5031 
22183 0 5 2.91805 20.7603 28.5625 
16600 0 5 0.945513 17.7473 31.0993 
8603 0 5 2.53003 18.0531 29.7416 
2573 0 5 2.59428 19.0254 31.0109 
9065 0 5 3.86397 27.2018 2.29699 
9323 0 5 1.76608 23.3677 3.70689 
12337 0 5 1.36849 25.3702 3.62962 
22899 0 5 5.00762 25.6723 4.45201 
13558 0 5 0.807746 26.2269 5.99689 
4668 0 5 2.81798 26.8322 5.92263 
2181 0 5 5.18399 27.2481 5.15124 
26186 0 5 6.05327 22.7628 6.86195 
11872 0 5 2.7136 27.6588 6.68012 
25119 0 5 5.76032 26.5257 6.12416 
1600 0 5 1.46177 24.8766 8.84981 
8779 0 5 5.80417 26.8092 9.33021 
18697 0 5 4.17741 26.4785 10.5137 
8476 0 5 5.25944 24.0409 13.3228 
15551 0 5 4.28176 22.9585 15.4219 
26878 0 5 2.43246 25.5958 15.1074 
26994 0 5 1.72902 24.2405 16.3946 
11957 0 5 3.16214 25.2017 18.0783 
24581 0 5 3.8654 25.8344 17.6006 
24506 0 5 2.19451 27.4936 21.2313 
4538 0 5 5.15713 27.4649 21.1475 
14424 0 5 2.98125 23.5658 25.2329 
17747 0 5 0.874396 25.649 24.6623 
16371 0 5 3.41554 27.5764 24.2706 
16671 0 5 2.8512 26.0217 28.7193 
7318 0 5 2.81224 23.9868 32.4503 
20973 0 5 3.7001 26.3709 31.6681 
18489 0 5 1.36766 32.4454 2.12408 
1763 0 5 3.43189 31.7099 1.62936 
21086 0 5 0.798417 29.2067 3.85096 
8573 0 5 2.18111 30.5624 3.16011 
4284 0 5 4.53173 32.0367 2.52173 
1158 0 5 5.4929 28.8409 4.35924 
12940 0 5 2.46101 31.9179 4.57073 
21432 0 5 2.71984 32.7673 4.85182 
20379 0 5 4.37155 28.0077 7.49214 
11680 0 5 5.32069 29.8714 6.65522 
12366 0 5 3.34704 27.7881 9.41387 
16820 0 5 1.45771 32.2504 9.58722 
14730 0 5 4.08265 31.3911 9.26702 
25351 0 5 2.86069 32.1472 9.5055 
23182 0 5 5.34238 31.0122 10.3746 
9823 0 5 4.3927 31.5223 10.3976 
18945 0 5 5.72536 28.6545 12.6629 
20933 0 5 4.07979 29.2459 14.5132 
8420 0 5 2.85237 29.2748 14.1821 
10827 0 5 1.05155 30.6301 13.663 
21872 0 5 6.02043 31.5235 14.7685 
21141 0 5 2.47969 28.649 16.087 
14863 0 5 5.91732 31.1415 15.8192 
24910 0 5 4.27804 32.1885 15.443 
16698 0 5 5.15363 29.2342 19.2263 
8624 0 5 3.72029 27.8918 23.0276 
12815 0 5 3.39911 29.5401 23.431 
17020 0 5 5.23742 30.7151 23.3556 
26107 0 5 2.56776 28.5185 24.281 
15229 0 5 5.9566 32.6633 26.2541 
10201 0 5 1.74284 28.3325 28.8328 
25270 0 5 2.67353 29.0035 28.5886 
8912 0 5 5.04052 28.7581 27.8608 
25019 0 5 0.87724 32.3835 27.8331 
14131 0 5 1.9557 32.5627 30.8298 
4147 0 5 9.72452 1.07675 1.07692 
20241 0 5 9.0441 3.27412 1.51658 
4626 0 5 9.18194 5.14187 2.59522 
10725 0 5 10.5968 2.993 5.37508 
6236 0 5 9.64506 4.92917 4.40288 
10695 0 5 6.87179 4.83139 7.63786 
22450 0 5 7.66986 3.27631 7.91364 
3919 0 5 8.70283 3.35095 9.33597 
2630 0 5 7.86749 5.93979 8.63172 
26600 0 5 9.01131 4.85874 9.0229 
13951 0 5 10.2503 5.01277 8.93822 
5854 0 5 9.77269 3.66159 10.2895 
15953 0 5 10.0755 2.74068 10.0359 
15219 0 5 7.57526 4.79615 11.1329 
15877 0 5 6.32552 5.144 12.421 
21310 0 5 9.4904 4.04789 14.6476 
9686 0 5 10.7782 2.72667 13.6253 
2343 0 5 6.97658 4.42912 16.0573 
22497 0 5 8.47639 2.18336 17.2865 
25782 0 5 9.61623 2.39607 20.2468 
26333 0 5 6.55768 3.82644 19.9527 
12440 0 5 7.4902 4.08275 19.2187 
23009 0 5 8.56074 3.57906 20.3391 
24882 0 5 10.9138 3.23646 20.9179 
56 0 5 7.60886 2.56749 22.4953 
1645 0 5 7.09522 4.01493 22.2957 
14741 0 5 9.56453 3.03396 23.2753 
4576 0 5 10.651 1.34877 26.7619 
236 0 5 9.5545 3.25653 27.2791 
22506 0 5 10.9081 5.6869 26.229 
21407 0 5 11.4998 1.10507 28.4045 
2678 0 5 8.89998 4.50743 29.6932 
15088 0 5 10.8137 4.55813 32.8532 
1582 0 5 8.84239 7.30225 1.03282 
14759 0 5 10.0038 8.69682 3.08604 
16286 0 5 9.00684 10.8912 3.27724 
18681 0 5 11.1336 8.04021 4.69004 
21060 0 5 7.09971 10.1185 6.34034 
4912 0 5 7.00068 8.20307 8.44898 
7029 0 5 6.82935 6.3483 11.1244 
25013 0 5 8.50155 6.55744 9.86089 
212 0 5 7.36198 6.89215 11.8533 
4497 0 5 11.4937 10.2379 12.4803 
18054 0 5 8.92127 7.94942 16.7574 
11401 0 5 9.04789 7.93838 15.6104 
22839 0 5 7.8285 9.52566 17.0264 
13700 0 5 8.3199 8.7286 18.5246 
5112 0 5 8.18319 8.29699 21.0723 
15392 0 5 7.31006 10.9133 21.7862 
10243 0 5 11.0006 10.8226 23.2398 
8805 0 5 6.29471 7.23578 25.165 
19337 0 5 6.77402 9.13824 25.8779 
20216 0 5 6.45502 8.86974 24.5527 
20751 0 5 9.40099 8.87595 24.5272 
3824 0 5 6.31801 9.82609 25.1473 
17316 0 5 10.3362 9.03031 27.1172 
15346 0 5 9.70322 8.30079 30.8721 
15992 0 5 8.39493 8.90505 30.7641 
20455 0 5 6.34368 9.54304 32.4167 
8625 0 5 7.38286 12.4635 2.40423 
23933 0 5 8.38046 11.7335 1.57908 
22370 0 5 8.92533 13.9805 2.02682 
25914 0 5 9.36946 13.6861 1.11906 
13149 0 5 8.50781 11.7362 3.89243 
137 0 5 8.94883 16.4089 3.06652 
18361 0 5 8.08808 16.8288 3.46586 
117 0 5 8.27912 15.6147 5.33579 
15726 0 5 8.56084 13.3723 6.43948 
22936 0 5 6.85754 13.683 12.3732 
13277 0 5 8.26428 14.0444 13.7238 
11083 0 5 10.5794 15.5705 18.3255 
15276 0 5 10.5973 16.222 17.2868 
13036 0 5 10.7094 16.0144 19.2466 
19279 0 5 7.1472 14.0615 20.5835 
19972 0 5 7.41908 13.6351 23.5012 
26485 0 5 7.93111 16 23.4692 
7488 0 5 8.87779 12.8383 25.1981 
22924 0 5 11.0242 12.0989 24.3917 
9760 0 5 6.42683 15.063 24.466 
16776 0 5 11.0806 15.7274 25.2113 
9514 0 5 7.3046 12.0717 26.8002 
20266 0 5 10.2436 14.445 26.084 
13455 0 5 10.4758 12.4698 30.0451 
13329 0 5 10.0461 14.6273 32.8562 
9257 0 5 7.37699 17.7189 3.09626 
5576 0 5 11.032 18.6305 6.86025 
20605 0 5 10.803 19.0515 7.88427 
25960 0 5 6.6338 19.4532 8.21153 
20693 0 5 10.9325 20.39 8.08461 
10329 0 5 6.41398 21.4579 8.18245 
21182 0 5 9.10977 18.4377 10.1841 
10190 0 5 7.70003 18.2656 15.0283 
11468 0 5 9.05733 21.2659 14.6141 
12418 0 5 7.2836 19.4601 16.5853 
22511 0 5 8.93538 20.2916 16.4877 
4474 0 5 8.04288 16.9261 20.4351 
15570 0 5 8.6141 17.8712 20.9309 
8564 0 5 11.3634 17.0029 23.3893 
2183 0 5 9.98402 20.8925 23.6229 
17191 0 5 10.4195 18.5009 24.7298 
14141 0 5 6.35673 20.5016 25.5971 
5665 0 5 9.77283 19.3237 26.7896 
9698 0 5 6.93112 21.8724 26.4004 
11714 0 5 6.2459 19.3754 29.0948 
4514 0 5 6.50553 18.0303 30.191 
4774 0 5 7.32265 17.08 30.12 
22232 0 5 6.3533 20.3384 29.6619 
25262 0 5 7.04667 19.2661 29.7501 
496 0 5 9.30589 17.687 32.659 
974 0 5 6.51547 19.3199 31.9325 
20873 0 5 8.8097 24.8548 1.36592 
15274 0 5 7.36006 24.7469 3.66074 
7144 0 5 7.1138 27.228 4.24167 
3598 0 5 8.76604 23.052 5.7882 
21251 0 5 11.3565 24.2332 4.97626 
25310 0 5 6.95841 26.2866 4.85415 
19955 0 5 10.096 25.2533 7.0388 
5274 0 5 10.9683 26.071 6.15432 
17330 0 5 10.0995 24.365 8.95229 
8477 0 5 7.57149 26.598 8.52543 
22937 0 5 8.93316 23.6763 10.1775 
19928 0 5 8.84333 25.7106 9.76356 
11366 0 5 8.46429 25.0891 10.7108 
17349 0 5 7.28315 25.9948 11.6674 
9307 0 5 9.4996 22.8208 15.0546 
3709 0 5 9.28903 25.4017 13.9453 
25787 0 5 10.0839 25.8527 15.9743 
17354 0 5 10.7664 26.2508 15.3345 
20493 0 5 11.3445 25.8561 17.4259 
6986 0 5 8.48178 23.8327 19.6391 
2985 0 5 10.8234 24.9465 19.398 
21291 0 5 8.64135 27.5815 20.4529 
21571 0 5 8.27751 27.4213 19.4525 
365 0 5 9.53729 23.1745 21.3925 
20704 0 5 8.54461 23.145 23.5415 
2166 0 5 8.19975 24.1849 23.7158 
20964 0 5 10.8334 27.4479 25.2548 
16837 0 5 10.3053 24.9467 27.6202 
16138 0 5 8.86081 25.2945 30.8582 
80 0 5 7.45773 27.3448 30.5465 
3955 0 5 8.11937 26.2855 32.8902 
21720 0 5 10.4715 30.8651 2.01731 
14262 0 5 6.23461 31.8164 1.09078 
13398 0 5 10.3891 31.8634 1.37318 
2844 0 5 8.45406 31.2895 2.65662 
535 0 5 9.17945 32.2665 2.90231 
481 0 5 7.79293 28.0767 4.52137 
10146 0 5 6.93492 31.263 4.66971 
14749 0 5 11.3318 27.9935 6.3174 
23015 0 5 10.4882 32.9278 7.54545 
14679 0 5 9.09569 28.8427 10.0944 
1730 0 5 11.3209 29.2283 12.6354 
8336 0 5 10.6541 30.0048 11.6771 
10042 0 5 9.4108 30.9936 14.2712 
7679 0 5 10.5468 30.4753 16.718 
15385 0 5 9.96912 31.8554 18.2945 
18994 0 5 8.62261 31.3853 21.4129 
5227 0 5 10.8194 28.4509 22.3474 
8714 0 5 9.27494 28.2334 24.8169 
15388 0 5 6.37099 29.2263 27.2019 
16729 0 5 6.71688 29.0089 28.5846 
21662 0 5 6.99078 29.9995 28.9488 
5659 0 5 8.93773 30.5216 28.4833 
9265 0 5 10.7892 28.3845 30.7161 
6036 0 5 12.584 1.98186 1.61413 
10279 0 5 12.5395 3.93767 1.46181 
618 0 5 14.8687 5.52837 1.78597 
15450 0 5 14.7479 5.37283 0.807185 
5505 0 5 16.8773 5.79129 1.42351 
654 0 5 15.6829 6.01668 1.0536 
21970 0 5 13.9293 2.66645 3.05319 
24426 0 5 12.6108 5.13295 7.15905 
10825 0 5 16.1138 3.79969 8.5563 
17093 0 5 12.4966 4.96416 9.39193 
9142 0 5 12.3287 1.63077 10.2869 
13088 0 5 13.4103 1.16562 10.5598 
13261 0 5 14.2025 2.1802 11.4487 
22947 0 5 16.701 3.11842 10.4037 
6744 0 5 15.3836 2.63826 11.5191 
8834 0 5 14.6665 1.99007 13.9657 
22224 0 5 14.5839 3.86849 16.6569 
5470 0 5 13.0392 5.89087 15.9951 
17006 0 5 14.0206 5.94128 15.4948 
11738 0 5 12.5685 1.3835 16.9367 
17100 0 5 15.722 1.42979 18.1622 
10464 0 5 12.8983 1.54122 19.0243 
16786 0 5 13.8879 3.48165 19.3349 
16716 0 5 12.0504 5.57281 19.3759 
5173 0 5 13.7897 2.28351 22.106 
14114 0 5 16.7927 2.15318 22.137 
4548 0 5 16.877 2.89239 21.301 
12447 0 5 13.9291 4.72236 21.9356 
5492 0 5 12.9171 2.10445 22.8662 
14334 0 5 16.8671 2.96656 22.9877 
20606 0 5 14.4286 1.14346 25.1917 
12571 0 5 13.2881 3.80308 25.7685 
15642 0 5 11.534 4.90831 24.2074 
13325 0 5 15.3617 0.855491 26.5807 
3927 0 5 13.8857 5.10753 27.2592 
17992 0 5 13.7173 5.92288 26.6459 
9612 0 5 16.41 4.84043 31.1308 
714 0 5 16.8096 5.1628 32.1143 
19305 0 5 15.9284 8.22827 1.6835 
17351 0 5 11.6702 9.8333 3.51081 
2097 0 5 11.5136 6.25704 4.3675 
3617 0 5 13.102 8.85562 4.32367 
14431 0 5 15.6592 7.73189 7.6979 
13289 0 5 14.6133 7.62584 8.13562 
21841 0 5 15.4332 6.66091 10.8965 
21066 0 5 12.6688 9.07507 11.861 
20410 0 5 14.2021 11.0585 14.1711 
20061 0 5 15.3828 8.85907 15.5866 
21663 0 5 13.952 9.11317 17.0366 
25353 0 5 16.6826 7.75798 19.8295 
22452 0 5 15.8967 9.29158 18.7567 
3211 0 5 12.5912 11.3966 21.9563 
17326 0 5 11.5418 10.0001 20.6514 
14926 0 5 12.8529 6.47901 24.4826 
19069 0 5 14.0079 6.2613 24.4393 
15659 0 5 13.2576 8.87641 24.5148 
8464 0 5 12.2253 10.601 25.0515 
11969 0 5 14.0411 8.49951 26.3315 
11432 0 5 16.775 11.3749 29.0939 
22167 0 5 11.7793 7.58006 30.3834 
14478 0 5 14.4037 7.27768 30.2967 
330 0 5 16.5043 7.06739 30.8757 
26670 0 5 15.9037 7.8135 31.3288 
15099 0 5 16.6013 8.61792 31.9102 
18618 0 5 14.4248 11.7835 1.30694 
5497 0 5 14.3468 12.6467 1.97767 
22237 0 5 16.8788 12.9699 1.30476 
3194 0 5 16.068 13.4635 1.78792 
25127 0 5 14.0491 13.2852 4.23086 
18005 0 5 15.9694 12.69 5.66846 
23691 0 5 13.2254 14.7912 5.98284 
14416 0 5 12.5389 14.7952 7.08492 
12009 0 5 15.0653 14.2241 6.78289 
1121 0 5 12.5936 16.7096 10.2426 
26099 0 5 15.9889 12.9001 12.1633 
21973 0 5 15.7986 11.6139 12.2843 
9728 0 5 12.6872 16.7285 14.6702 
16746 0 5 12.9396 12.0729 15.2949 
26893 0 5 15.6607 13.2942 15.3866 
13082 0 5 16.6578 13.5291 16.718 
25548 0 5 14.7282 13.7245 17.3425 
22940 0 5 14.3647 16.3639 18.2811 
18290 0 5 16.5382 15.5708 18.0734 
13982 0 5 13.6447 15.7385 23.8403 
5955 0 5 16.3465 13.0543 24.2095 
14968 0 5 11.9381 14.9526 24.8451 
12922 0 5 12.4976 14.7734 25.8657 
25591 0 5 15.9141 14.2365 30.4066 
2753 0 5 15.5019 15.4399 32.0236 
12899 0 5 14.6311 20.4091 1.04338 
2755 0 5 16.2566 19.5643 0.863598 
20444 0 5 16.5208 22.0944 2.26644 
4495 0 5 13.877 20.0138 5.39364 
13773 0 5 11.7908 21.7977 5.97926 
11247 0 5 11.7288 17.4257 8.57394 
10245 0 5 12.523 21.6584 8.65496 
2790 0 5 12.3234 17.786 10.3131 
15654 0 5 14.3926 17.2286 10.8687 
15949 0 5 14.3229 20.4111 12.3168 
9077 0 5 12.4181 17.2005 18.3106 
1119 0 5 12.7679 20.7913 21.3975 
8790 0 5 13.8734 17.8261 23.2208 
12411 0 5 11.6997 20.4789 22.5304 
14497 0 5 16.3279 19.8533 22.5238 
18453 0 5 12.0658 20.6914 23.4894 
11241 0 5 12.8471 20.1125 24.2274 
8590 0 5 15.9217 18.6938 25.7077 
23965 0 5 12.553 18.971 26.1686 
54 0 5 14.8289 18.8726 26.0983 
18124 0 5 15.9513 20.218 27.7466 
14786 0 5 13.6234 21.7157 30.538 
20889 0 5 12.2449 18.4279 31.6593 
14476 0 5 13.3346 19.1249 31.5066 
20849 0 5 12.8341 21.6261 31.7991 
23922 0 5 16.6433 21.439 32.2054 
14444 0 5 13.6467 26.317 1.83859 
22041 0 5 14.479 25.2319 3.73294 
22402 0 5 14.5595 27.3626 3.24604 
9186 0 5 12.8905 26.5396 7.40789 
5115 0 5 14.4806 23.1912 8.53427 
11732 0 5 12.8513 26.6368 8.90264 
21461 0 5 12.9519 25.4601 10.311 
9831 0 5 14.4413 25.1788 13.7242 
9727 0 5 16.5714 24.7473 14.262 
8434 0 5 14.9073 23.5639 17.8387 
13452 0 5 15.012 23.003 20.4142 
138 0 5 16.2411 27.1714 18.9116 
830 0 5 14.4642 26.4555 23.5112 
1496 0 5 16.2471 22.8489 25.6968 
3943 0 5 16.2744 25.3793 24.2749 
1048 0 5 15.7379 24.9258 25.3634 
16270 0 5 12.3669 22.3096 26.7066 
21373 0 5 11.8803 25.7382 26.8659 
2619 0 5 13.4199 24.6545 27.9495 
16277 0 5 14.9004 23.3979 30.4798 
15934 0 5 16.6835 23.5095 29.8544 
20249 0 5 13.5614 26.2369 30.0272 
16948 0 5 13.6516 29.048 1.51696 
8202 0 5 12.4322 30.8239 1.83158 
10677 0 5 15.7082 29.9502 2.22665 
21007 0 5 16.2686 32.0458 0.782678 
8924 0 5 12.7093 28.3411 3.18592 
24345 0 5 14.3857 28.7218 6.10304 
26137 0 5 16.3481 29.62 4.54419 
16449 0 5 11.7893 32.5402 6.39342 
13078 0 5 15.4676 30.5858 7.99103 
13077 0 5 12.9505 29.7893 10.016 
5908 0 5 16.4763 29.754 10.3316 
2065 0 5 14.1247 30.5648 13.9055 
1785 0 5 13.5623 32.8932 16.201 
11626 0 5 14.8334 29.6195 19.859 
14161 0 5 14.5598 31.1849 20.7912 
10124 0 5 16.8331 30.1693 25.4263 
7170 0 5 12.9915 30.8794 26.6575 
4347 0 5 13.9855 32.3848 26.1459 
3424 0 5 12.9246 30.38 28.7238 
4530 0 5 15.1443 30.4136 30.3896 
9261 0 5 15.7738 30.5214 32.5139 
24272 0 5 12.5381 31.4091 31.9141 
21192 0 5 18.7376 4.68311 2.47276 
3272 0 5 20.0024 2.01852 4.48469 
7163 0 5 20.5055 6.04671 5.60665 
2418 0 5 19.2969 4.04101 6.4421 
14963 0 5 19.2657 3.84914 9.056 
4641 0 5 22.162 3.15686 8.88863 
24985 0 5 18.1054 3.05009 11.0252 
5449 0 5 17.7047 5.68904 10.3278 
4348 0 5 17.8547 5.31689 14.4143 
12748 0 5 22.2152 2.30237 15.7458 
5507 0 5 19.7194 5.6084 15.2294 
20394 0 5 21.6948 2.43937 17.5024 
15322 0 5 19.7006 4.20244 18.5935 
23002 0 5 18.4977 5.44709 17.3555 
15395 0 5 21.3119 1.55509 19.3739 
5258 0 5 17.8637 4.80215 20.2037 
17198 0 5 22.1176 1.05704 21.0483 
8934 0 5 16.9178 1.07016 22.6625 
9726 0 5 20.402 0.877124 25.7729 
9535 0 5 17.9032 4.90069 24.2551 
23620 0 5 18.1357 2.45441 31.2111 
18623 0 5 17.3371 3.60933 31.2755 
2292 0 5 20.199 2.27601 32.4704 
12362 0 5 16.9609 4.4535 32.9701 
26135 0 5 18.9466 11.4591 1.41113 
7339 0 5 17.3364 11.4031 2.59587 
6461 0 5 21.0736 10.2521 4.27557 
9507 0 5 20.9599 10.8582 5.96537 
13534 0 5 18.3152 8.67818 7.30231 
166 0 5 21.1053 9.19544 6.86558 
17025 0 5 19.1405 11.2962 11.6187 
11688 0 5 18.3967 11.3905 13.5458 
2074 0 5 20.9722 7.17561 16.4685 
11778 0 5 21.9767 6.1838 17.8827 
15402 0 5 19.2141 9.43568 19.6075 
7901 0 5 21.1817 9.13259 19.9922 
12816 0 5 18.6175 9.95375 20.4469 
20038 0 5 19.5125 7.25417 20.558 
6752 0 5 18.6376 7.87352 24.4463 
1799 0 5 19.754 9.28267 24.1983 
9395 0 5 20.6325 6.52863 26.2627 
12042 0 5 17.5528 9.3084 27.8718 
2298 0 5 19.6115 10.5139 31.2354 
26035 0 5 21.0811 8.86277 31.8176 
15696 0 5 17.8957 10.7898 31.6148 
23496 0 5 18.4216 9.91884 32.9361 
13448 0 5 20.1204 13.161 12.0295 
23678 0 5 20.7994 14.3789 12.0191 
25744 0 5 21.1498 14.3128 15.6264 
11294 0 5 20.3849 12.5208 17.7408 
16629 0 5 21.6055 15.1495 18.3469 
14389 0 5 21.8044 13.6787 21.0883 
13752 0 5 22.2462 14.8711 20.7474 
12539 0 5 17.2269 13.1788 23.4161 
4099 0 5 21.2805 13.4677 23.2938 
19265 0 5 18.8149 15.6403 22.6461 
20461 0 5 20.8468 15.8134 23.8614 
23395 0 5 19.8321 12.6418 24.884 
24131 0 5 17.2547 14.9195 24.1804 
10008 0 5 18.3211 14.2643 24.4623 
26102 0 5 20.451 14.7216 24.54 
6822 0 5 21.6316 14.2118 26.3459 
11661 0 5 22.1854 16.6325 26.403 
4202 0 5 21.7759 16.7205 29.236 
5239 0 5 18.554 12.3335 29.7821 
17917 0 5 20.377 14.9195 30.3026 
1272 0 5 19.8842 11.631 31.8646 
12281 0 5 19.0092 14.3089 32.2558 
25152 0 5 19.4241 15.2769 31.8358 
25571 0 5 22.2069 16.6505 31.3295 
2956 0 5 19.9764 17.3258 0.933345 
12576 0 5 19.6879 21.7804 2.93745 
22334 0 5 19.1622 17.3917 4.3667 
22274 0 5 20.6378 17.7561 4.75179 
24026 0 5 22.252 18.4188 10.715 
19004 0 5 19.9855 17.5113 12.6845 
14231 0 5 21.0682 17.9092 12.7638 
12866 0 5 18.8186 21.3354 14.487 
8875 0 5 19.9011 17.0537 16.0199 
8533 0 5 18.4056 21.8863 15.3181 
1003 0 5 19.4273 18.0815 17.191 
15729 0 5 21.9689 17.6079 18.2817 
26839 0 5 20.2809 17.0171 20.0031 
7241 0 5 21.3545 22.1845 19.7423 
9902 0 5 18.7744 20.512 22.2833 
16838 0 5 19.6091 19.602 22.7999 
13284 0 5 20.8059 18.8829 22.3313 
24567 0 5 19.0487 18.6256 25.8928 
4455 0 5 19.7909 19.3463 27.574 
14051 0 5 20.9092 17.0501 28.5196 
24358 0 5 19.8438 18.1106 30.9109 
2940 0 5 19.1933 21.6316 32.0678 
18289 0 5 18.6228 22.7952 3.24314 
8615 0 5 18.6311 26.8161 2.52308 
8939 0 5 20.0494 25.9231 3.03958 
24956 0 5 20.2346 27.4303 3.757 
26178 0 5 20.5845 25.684 6.04735 
1000 0 5 21.4995 26.3591 9.35901 
20869 0 5 22.1626 22.8386 10.9357 
15118 0 5 17.721 22.6811 16.7153 
25887 0 5 21.5115 24.8549 15.3587 
4535 0 5 21.6572 26.2724 15.6816 
11378 0 5 17.2511 23.8788 20.3641 
21645 0 5 21.8285 25.3922 18.7949 
7152 0 5 21.0399 24.2042 19.9409 
18368 0 5 17.6458 24.7301 22.644 
16753 0 5 21.1822 22.747 25.2671 
10111 0 5 18.4096 26.8553 24.2568 
18240 0 5 17.9729 24.6175 27.2726 
9520 0 5 19.9486 26.3024 28.5201 
5265 0 5 17.6842 26.0261 29.7248 
24566 0 5 20.4837 24.362 31.8503 
23689 0 5 20.1403 25.8129 31.5094 
23016 0 5 18.2991 28.568 1.36224 
24817 0 5 19.251 31.0382 2.12318 
16323 0 5 19.1409 32.3261 1.90278 
5897 0 5 21.0617 31.6438 1.87627 
26900 0 5 20.205 31.2221 3.72638 
22158 0 5 17.5437 31.4321 5.97715 
11479 0 5 19.3705 32.7131 5.7258 
2961 0 5 19.4852 31.6013 5.99639 
21818 0 5 21.6795 29.3167 7.38854 
17749 0 5 21.1933 28.7208 6.48562 
10242 0 5 18.3723 30.865 6.6628 
16493 0 5 18.457 31.7854 7.35966 
7501 0 5 16.9098 32.3378 7.52055 
11417 0 5 17.4722 31.6769 9.10322 
20255 0 5 19.3703 31.7701 8.14505 
6221 0 5 21.746 31.3407 12.4003 
5882 0 5 16.9174 28.0275 13.585 
18908 0 5 20.9702 31.1813 13.3856 
8600 0 5 17.1596 32.5801 14.7606 
2821 0 5 17.9984 29.1107 15.3249 
3224 0 5 18.8957 28.634 15.3046 
1770 0 5 20.7493 29.1509 16.2917 
13985 0 5 18.3853 28.3064 17.2537 
26700 0 5 21.4352 28.9058 17.1966 
8828 0 5 16.9323 29.8979 17.0909 
19936 0 5 20.1759 30.1226 17.2183 
11802 0 5 17.0735 32.3964 17.9467 
26535 0 5 20.4664 32.5117 17.5005 
12867 0 5 18.2614 31.098 19.6611 
37 0 5 19.8893 31.2525 21.6794 
5531 0 5 20.1247 30.8947 24.9811 
22477 0 5 20.1949 29.3747 26.7378 
7826 0 5 17.0059 30.9322 27.0615 
8475 0 5 18.475 32.4686 26.3051 
7334 0 5 16.9112 28.8665 27.9553 
2011 0 5 17.4942 27.9812 28.3589 
25788 0 5 17.9758 29.7948 27.9871 
6263 0 5 19.4171 30.5787 28.284 
8719 0 5 21.2016 29.5429 27.7337 
15951 0 5 17.2975 30.5127 30.1423 
15437 0 5 17.2708 29.2939 32.141 
22802 0 5 19.0816 29.546 32.9666 
12513 0 5 22.7464 0.930006 1.94706 
409 0 5 23.4201 3.01977 1.15878 
15145 0 5 23.0727 3.45268 3.1177 
14588 0 5 23.6737 5.14215 3.27209 
8324 0 5 26.5215 5.32008 3.82571 
13551 0 5 25.5216 1.98355 5.60735 
1830 0 5 27.059 5.58846 5.94755 
14239 0 5 25.6036 0.99879 6.20126 
1324 0 5 22.9938 4.79751 8.03789 
874 0 5 22.9806 2.9247 11.3575 
5946 0 5 22.4157 2.85436 10.1612 
3196 0 5 22.6002 3.24446 12.4432 
16127 0 5 24.6904 2.80732 14.5076 
3951 0 5 25.6439 5.14181 14.6937 
20457 0 5 23.9683 2.34048 16.018 
16372 0 5 24.931 6.0016 16.6969 
8753 0 5 24.6952 1.19173 18.4474 
22054 0 5 27.502 3.57478 20.2553 
21408 0 5 23.6368 1.90649 22.0395 
6972 0 5 25.3776 1.13686 21.7214 
26871 0 5 23.7199 3.81894 21.1308 
13454 0 5 23.9063 2.45339 23.991 
6413 0 5 24.2973 1.44524 23.0452 
1083 0 5 23.5414 3.82622 22.5245 
4948 0 5 25.2626 2.63108 22.3107 
17851 0 5 25.7335 5.82398 23.1776 
4736 0 5 25.2132 3.85293 24.3928 
2109 0 5 25.2356 2.1421 28.5328 
24620 0 5 27.3497 1.54706 29.1923 
13908 0 5 25.4024 0.842971 32.905 
353 0 5 22.7812 2.94882 32.2184 
4004 0 5 26.501 6.33594 3.50253 
11776 0 5 24.8962 6.52998 6.86873 
1515 0 5 26.2336 8.87784 7.66743 
5656 0 5 24.0136 8.30883 14.5289 
3174 0 5 25.8538 9.79031 13.4883 
11707 0 5 25.6499 10.7412 14.993 
12562 0 5 22.8653 6.32003 19.6778 
11512 0 5 24.971 6.55884 21.6055 
20388 0 5 26.474 6.87837 20.6724 
18470 0 5 25.9247 8.62189 21.1835 
26434 0 5 24.3167 6.34618 22.6803 
16130 0 5 25.4556 8.94028 22.7643 
7742 0 5 22.4118 7.58756 25.8703 
17262 0 5 24.1138 10.7621 24.8819 
1959 0 5 27.1756 7.4964 26.3156 
2327 0 5 27.5775 6.58235 27.734 
26594 0 5 25.3319 8.86001 28.0793 
25283 0 5 26.4164 15.3361 5.63086 
6574 0 5 23.8853 16.4785 6.53825 
23175 0 5 24.7248 11.562 8.18742 
15559 0 5 27.1583 12.9653 9.58237 
21630 0 5 27.4326 12.2113 8.06282 
6288 0 5 23.5927 13.4888 9.39318 
18531 0 5 23.7201 13.3558 10.478 
7497 0 5 24.0145 15.8075 9.85074 
4771 0 5 22.5855 13.1096 11.9188 
20598 0 5 25.1336 16.5309 11.6808 
15854 0 5 24.3231 12.0878 15.0915 
14220 0 5 23.1851 15.9477 14.9803 
26985 0 5 25.2164 16.4086 14.1389 
25597 0 5 23.5409 15.8183 16.4927 
26673 0 5 24.4391 16.3939 15.7806 
8634 0 5 23.5022 13.7215 18.6536 
13964 0 5 25.9418 14.3442 17.9846 
23921 0 5 22.6408 15.6333 18.6082 
10236 0 5 23.7321 13.3928 23.7716 
9227 0 5 24.9825 14.1084 22.4238 
20680 0 5 26.9481 15.1497 22.4301 
24362 0 5 25.4945 12.4728 24.7463 
13676 0 5 27.4605 13.9515 24.3455 
19915 0 5 22.7002 15.6831 25.1152 
24737 0 5 22.3469 11.5836 26.9975 
21509 0 5 22.8333 14.3164 27.1466 
10114 0 5 25.8517 13.7634 29.2374 
26751 0 5 26.9647 14.5204 29.4538 
4273 0 5 24.8183 13.0981 29.5433 
23245 0 5 24.2371 16.7632 30.472 
6849 0 5 25.808 16.3211 30.4927 
26529 0 5 26.1905 15.2214 30.5802 
16665 0 5 25.8277 15.7271 31.4727 
18533 0 5 23.6407 18.6087 3.78897 
2916 0 5 27.4405 19.5181 3.71877 
17437 0 5 23.6801 20.8423 3.93367 
4562 0 5 23.4943 22.2009 3.67287 
13200 0 5 26.2701 19.0191 8.01976 
11392 0 5 25.426 18.5247 12.7966 
14435 0 5 26.2055 17.4961 11.7023 
5352 0 5 25.9295 22.2006 13.2357 
16845 0 5 23.7817 17.868 13.4353 
15426 0 5 26.8997 21.5987 13.9288 
12419 0 5 26.2948 18.234 16.5333 
13671 0 5 26.8615 19.0885 15.3815 
20494 0 5 27.2301 22.0371 15.4393 
12391 0 5 27.226 19.4792 18.0961 
18703 0 5 22.9036 17.0115 18.7808 
19378 0 5 24.1619 21.6843 20.4294 
1578 0 5 27.0401 20.9618 22.2739 
5070 0 5 22.7953 17.5884 29.4217 
6562 0 5 25.4392 18.4948 29.2076 
22675 0 5 26.7232 17.0953 28.2785 
8491 0 5 26.921 21.6613 29.7069 
14337 0 5 22.7006 17.5919 32.6866 
11359 0 5 25.3152 24.4642 1.46622 
5909 0 5 24.5706 24.939 0.762764 
21753 0 5 25.2481 26.5909 1.55981 
3885 0 5 23.9833 22.4078 2.84608 
24755 0 5 26.2133 27.0037 4.65938 
15637 0 5 27.1837 25.4717 7.37098 
20235 0 5 23.3444 23.6557 9.3447 
23842 0 5 26.164 22.5629 8.92802 
13694 0 5 27.3955 23.2511 7.97877 
3172 0 5 26.2751 24.9009 7.95172 
2648 0 5 23.0116 24.462 14.5027 
4892 0 5 22.3154 24.0361 16.0892 
3179 0 5 24.2017 22.6253 16.0499 
4288 0 5 25.7673 23.0984 18.5913 
7622 0 5 26.9709 24.1115 18.7427 
13399 0 5 26.7512 24.1547 19.8541 
10934 0 5 23.1611 26.2591 19.7144 
22549 0 5 24.6974 27.1116 25.0119 
6661 0 5 27.0357 27.1529 24.4378 
235 0 5 26.9457 25.9113 25.2729 
12182 0 5 27.4516 24.1363 28.2944 
11195 0 5 26.1166 25.2819 30.5677 
19966 0 5 27.6094 26.0051 30.2074 
23806 0 5 23.4848 22.5509 32.0031 
15695 0 5 25.1529 29.5921 2.30507 
19978 0 5 27.6109 32.3332 0.779702 
6834 0 5 22.8225 29.8078 4.09607 
19462 0 5 26.9071 29.5913 3.77606 
13924 0 5 24.1704 32.0213 2.59738 
24085 0 5 25.7044 30.0223 7.46897 
11972 0 5 25.9161 30.9277 6.8127 
19842 0 5 24.7943 32.7824 6.66822 
25282 0 5 27.0296 31.0257 9.6673 
2911 0 5 24.0477 33.0548 9.00791 
11060 0 5 22.7895 28.9502 11.0301 
2599 0 5 25.2824 28.1523 9.7881 
9776 0 5 24.7793 28.7177 11.0371 
25838 0 5 22.8904 31.9459 12.8348 
3669 0 5 24.9035 28.4632 14.2019 
8400 0 5 23.659 29.8525 14.8545 
15727 0 5 26.3656 32.7342 13.735 
9293 0 5 24.5393 29.3522 15.2803 
10881 0 5 24.4374 29.2071 18.5924 
13965 0 5 23.7586 30.1986 16.9777 
15030 0 5 25.254 30.5032 17.4815 
22915 0 5 22.5998 29.2335 19.6957 
7763 0 5 23.024 28.8699 21.2374 
8884 0 5 25.7108 28.3695 21.3999 
16711 0 5 25.9115 27.9887 22.8286 
16801 0 5 25.7738 33.0549 23.2218 
4366 0 5 27.3464 31.9945 27.1109 
4444 0 5 23.0746 28.1025 29.3059 
17918 0 5 25.0102 30.4909 28.625 
3191 0 5 25.8715 27.8068 30.3756 
20663 0 5 24.9507 27.9679 30.6871 
23789 0 5 25.3089 30.1611 30.5265 
4420 0 5 22.8734 29.261 31.813 
8932 0 5 26.16 28.1275 32.0358 
4829 0 5 23.7826 29.7289 31.9986 
343 0 5 26.4838 30.744 31.4159 
14026 0 5 30.8996 0.857945 3.0227 
21597 0 5 28.7643 2.08508 4.63792 
12952 0 5 29.4481 3.19451 5.60578 
26836 0 5 30.6635 3.05181 4.89043 
20243 0 5 28.7897 3.65266 7.16229 
8227 0 5 30.3019 2.09254 9.21256 
14171 0 5 30.9256 3.48388 8.58621 
8559 0 5 31.6805 5.59316 8.78821 
16143 0 5 31.6474 2.74562 10.51 
20351 0 5 28.7707 4.50709 10.4593 
19863 0 5 28.3228 4.8531 13.5255 
22135 0 5 30.8638 2.84279 16.2419 
7245 0 5 31.7675 4.26485 16.6041 
19234 0 5 27.8952 5.27496 16.0961 
6264 0 5 28.9129 5.58412 16.87 
1786 0 5 28.3653 0.767923 18.3264 
35 0 5 32.5928 1.27832 16.9817 
8222 0 5 27.7901 5.48995 18.0323 
14448 0 5 31.0861 3.97128 20.474 
24361 0 5 31.1593 1.8889 21.0333 
19956 0 5 27.7755 3.7846 24.3492 
21288 0 5 27.7187 1.42097 27.4984 
6030 0 5 29.3798 5.49877 27.304 
2385 0 5 28.4364 1.28395 31.1921 
20161 0 5 32.5304 3.22908 29.6873 
886 0 5 28.3618 5.96472 29.4917 
10880 0 5 29.5929 5.98534 30.3941 
23702 0 5 28.6596 5.88259 32.0747 
5240 0 5 33.0516 8.13736 3.21373 
14127 0 5 29.5858 7.76244 6.04321 
15624 0 5 32.386 8.28465 5.6429 
22050 0 5 33.0143 10.3584 4.8756 
15963 0 5 31.7764 9.54525 8.90983 
4613 0 5 29.19 10.2103 9.4825 
3187 0 5 30.7266 7.0586 12.4279 
8427 0 5 28.3902 11.3798 16.3952 
24095 0 5 30.8543 6.14524 17.3435 
1583 0 5 29.3545 7.01881 25.5416 
14563 0 5 28.6176 10.0503 25.2504 
4649 0 5 30.6577 7.04643 27.021 
24590 0 5 30.0726 8.10769 26.045 
24307 0 5 32.4214 8.59191 29.3148 
15103 0 5 32.7864 9.58993 29.4994 
21595 0 5 30.3877 8.92128 31.3096 
20851 0 5 28.959 11.0758 31.4022 
20495 0 5 29.2706 13.4975 2.09256 
2242 0 5 32.6648 16.3699 2.18842 
6241 0 5 29.9849 12.6565 2.66981 
23109 0 5 30.6179 12.1779 3.3837 
15500 0 5 27.8805 14.3146 4.90529 
16961 0 5 32.3917 14.1027 5.97054 
11858 0 5 31.1993 14.5635 6.53089 
1891 0 5 32.9185 16.657 7.75435 
12020 0 5 27.9076 15.1729 8.93217 
22217 0 5 32.2251 16.1901 8.38889 
2094 0 5 28.7689 12.0747 12.6536 
15297 0 5 29.2045 13.0116 13.5225 
24726 0 5 31.0788 12.6022 13.8776 
10225 0 5 30.1372 14.219 14.6057 
12201 0 5 28.8924 16.7697 19.9836 
22447 0 5 28.6143 11.652 20.8753 
25852 0 5 32.83 14.6925 22.4844 