ITEM: TIMESTEP
0
ITEM: NUMBER OF ATOMS
475
ITEM: BOX BOUNDS pp pp pp
0.0000000000000000e+00 3.3789999999999999e+01
0.0000000000000000e+00 3.3789999999999999e+01
0.0000000000000000e+00 3.3789999999999999e+01
ITEM: ATOMS id mol type x y z 
3661 0 5 2.7 0.5 4.5 
4625 0 5 4.9 4.9 5.5 
6358 0 5 1.6 2.7 7.5 
6356 0 5 1.6 4.9 7.5 
10805 0 5 0.5 4.9 12.5 
13558 0 5 1.6 2.7 15.5 
14516 0 5 3.8 4.9 16.5 
18001 0 5 0.5 0.5 20.5 
18116 0 5 3.8 4.9 20.5 
19021 0 5 4.9 0.5 21.5 
19858 0 5 1.6 2.7 22.5 
20765 0 5 2.7 4.9 23.5 
21602 0 5 0.5 1.6 24.5 
22503 0 5 0.5 2.7 25.5 
24363 0 5 2.7 2.7 27.5 
24418 0 5 3.8 2.7 27.5 
3666 0 5 2.7 6 4.5 
3729 0 5 4.9 9.3 4.5 
6427 0 5 4.9 7.1 7.5 
6368 0 5 2.7 8.2 7.5 
6429 0 5 4.9 9.3 7.5 
6370 0 5 2.7 10.4 7.5 
9128 0 5 4.9 8.2 10.5 
13568 0 5 2.7 8.2 15.5 
14455 0 5 1.6 6 16.5 
14514 0 5 3.8 7.1 16.5 
14409 0 5 0.5 9.3 16.5 
14451 0 5 1.6 10.4 16.5 
15310 0 5 0.5 10.4 17.5 
16206 0 5 0.5 6 18.5 
16254 0 5 1.6 7.1 18.5 
18053 0 5 1.6 8.2 20.5 
18111 0 5 3.8 10.4 20.5 
19928 0 5 4.9 8.2 22.5 
20751 0 5 1.6 10.4 23.5 
21668 0 5 2.7 8.2 24.5 
22613 0 5 3.8 8.2 25.5 
24307 0 5 0.5 7.1 27.5 
25268 0 5 2.7 8.2 28.5 
975 0 5 2.7 15.9 1.5 
2831 0 5 4.9 11.5 3.5 
2833 0 5 4.9 13.7 3.5 
3611 0 5 0.5 11.5 4.5 
3613 0 5 0.5 13.7 4.5 
3614 0 5 0.5 14.8 4.5 
5510 0 5 3.8 11.5 6.5 
5507 0 5 3.8 14.8 6.5 
7211 0 5 0.5 11.5 8.5 
9050 0 5 1.6 11.5 10.5 
10811 0 5 0.5 11.5 12.5 
13546 0 5 1.6 15.9 15.5 
15314 0 5 0.5 14.8 17.5 
16272 0 5 2.7 12.6 18.5 
21648 0 5 1.6 13.7 24.5 
23446 0 5 1.6 15.9 26.5 
24311 0 5 0.5 11.5 27.5 
24313 0 5 0.5 13.7 27.5 
24373 0 5 2.7 13.7 27.5 
24314 0 5 0.5 14.8 27.5 
24434 0 5 4.9 14.8 27.5 
1002 0 5 3.8 20.3 1.5 
981 0 5 2.7 22.5 1.5 
2776 0 5 2.7 17 3.5 
2718 0 5 0.5 19.2 3.5 
8142 0 5 1.6 20.3 9.5 
9021 0 5 0.5 22.5 10.5 
10844 0 5 1.6 18.1 12.5 
11781 0 5 2.7 22.5 13.5 
13640 0 5 4.9 21.4 15.5 
14478 0 5 2.7 19.2 16.5 
15403 0 5 3.8 19.2 17.5 
16281 0 5 2.7 22.5 18.5 
18101 0 5 3.8 21.4 20.5 
20717 0 5 0.5 18.1 23.5 
20801 0 5 3.8 21.4 23.5 
21620 0 5 0.5 21.4 24.5 
24345 0 5 1.6 17 27.5 
25277 0 5 2.7 18.1 28.5 
25341 0 5 4.9 22.5 28.5 
2799 0 5 3.8 23.6 3.5 
5544 0 5 4.9 25.8 6.5 
8139 0 5 1.6 23.6 9.5 
9037 0 5 1.6 25.8 10.5 
10895 0 5 3.8 28 12.5 
11722 0 5 0.5 23.6 13.5 
11797 0 5 3.8 25.8 13.5 
15445 0 5 4.9 26.9 17.5 
17199 0 5 3.8 23.6 19.5 
18024 0 5 0.5 25.8 20.5 
18999 0 5 3.8 23.6 21.5 
18983 0 5 2.7 24.7 21.5 
22522 0 5 0.5 23.6 25.5 
24335 0 5 1.6 28 27.5 
32 0 5 1.6 31.3 0.5 
1828 0 5 0.5 30.2 2.5 
2790 0 5 2.7 32.4 3.5 
4532 0 5 1.6 31.3 5.5 
4649 0 5 4.9 31.3 5.5 
5550 0 5 4.9 32.4 6.5 
9087 0 5 2.7 29.1 10.5 
9988 0 5 2.7 30.2 11.5 
11787 0 5 2.7 29.1 13.5 
16347 0 5 4.9 29.1 18.5 
17247 0 5 4.9 29.1 19.5 
17248 0 5 4.9 30.2 19.5 
20728 0 5 0.5 30.2 23.5 
3778 0 5 6 2.7 4.5 
9243 0 5 9.3 2.7 10.5 
9298 0 5 10.4 2.7 10.5 
11878 0 5 6 2.7 13.5 
14579 0 5 6 1.6 16.5 
14638 0 5 8.2 2.7 16.5 
14585 0 5 7.1 4.9 16.5 
15539 0 5 8.2 1.6 17.5 
16498 0 5 10.4 2.7 18.5 
16385 0 5 7.1 4.9 18.5 
18240 0 5 8.2 0.5 20.5 
19084 0 5 7.1 3.8 21.5 
20044 0 5 9.3 3.8 22.5 
24478 0 5 6 2.7 27.5 
190 0 5 7.1 10.4 0.5 
291 0 5 10.4 10.4 0.5 
2935 0 5 8.2 6 3.5 
4686 0 5 7.1 6 5.5 
4792 0 5 10.4 9.3 5.5 
13674 0 5 6 7.1 15.5 
16387 0 5 7.1 7.1 18.5 
17346 0 5 9.3 6 19.5 
18247 0 5 9.3 7.1 20.5 
18233 0 5 8.2 8.2 20.5 
19974 0 5 6 7.1 22.5 
19973 0 5 6 8.2 22.5 
24591 0 5 10.4 10.4 27.5 
4667 0 5 6 14.8 5.5 
9290 0 5 10.4 11.5 10.5 
10968 0 5 6 13.7 12.5 
11893 0 5 7.1 13.7 13.5 
14566 0 5 6 15.9 16.5 
15495 0 5 7.1 15.9 17.5 
24492 0 5 7.1 12.6 27.5 
24589 0 5 10.4 12.6 27.5 
2923 0 5 8.2 19.2 3.5 
4785 0 5 10.4 17 5.5 
6460 0 5 6 22.5 7.5 
8383 0 5 10.4 19.2 9.5 
9162 0 5 6 20.3 10.5 
11084 0 5 10.4 18.1 12.5 
11956 0 5 9.3 17 13.5 
11862 0 5 6 20.3 13.5 
12860 0 5 9.3 21.4 14.5 
13662 0 5 6 20.3 15.5 
17384 0 5 10.4 18.1 19.5 
17380 0 5 10.4 22.5 19.5 
19062 0 5 6 20.3 21.5 
19963 0 5 6 19.2 22.5 
21860 0 5 9.3 21.4 24.5 
23624 0 5 8.2 18.1 26.5 
23620 0 5 8.2 22.5 26.5 
1164 0 5 9.3 25.8 1.5 
5559 0 5 6 23.6 6.5 
5555 0 5 6 28 6.5 
6459 0 5 6 23.6 7.5 
6565 0 5 9.3 26.9 7.5 
6566 0 5 9.3 28 7.5 
9202 0 5 7.1 23.6 10.5 
10057 0 5 6 25.8 11.5 
15579 0 5 10.4 23.6 17.5 
15575 0 5 10.4 28 17.5 
17362 0 5 9.3 23.6 19.5 
24579 0 5 10.4 23.6 27.5 
24563 0 5 9.3 24.7 27.5 
24506 0 5 7.1 28 27.5 
1168 0 5 9.3 30.2 1.5 
8307 0 5 7.1 29.1 9.5 
11968 0 5 9.3 30.2 13.5 
16469 0 5 9.3 31.3 18.5 
18211 0 5 8.2 32.4 20.5 
23674 0 5 10.4 29.1 26.5 
24573 0 5 10.4 30.2 27.5 
25408 0 5 7.1 30.2 28.5 
25409 0 5 7.1 31.3 28.5 
2159 0 5 12.6 1.6 2.5 
7622 0 5 15.9 1.6 8.5 
12125 0 5 15.9 4.9 13.5 
15662 0 5 13.7 1.6 17.5 
15719 0 5 14.8 1.6 17.5 
15723 0 5 15.9 2.7 17.5 
16616 0 5 14.8 4.9 18.5 
19263 0 5 13.7 2.7 21.5 
23763 0 5 13.7 2.7 26.5 
24665 0 5 13.7 4.9 27.5 
353 0 5 12.6 8.2 0.5 
2154 0 5 12.6 7.1 2.5 
4028 0 5 15.9 8.2 4.5 
4911 0 5 14.8 10.4 5.5 
6655 0 5 12.6 6 7.5 
8467 0 5 13.7 7.1 9.5 
10266 0 5 13.7 6 11.5 
12008 0 5 11.5 8.2 13.5 
13854 0 5 12.6 7.1 15.5 
15655 0 5 12.6 6 17.5 
17453 0 5 12.6 8.2 19.5 
18427 0 5 15.9 7.1 20.5 
19255 0 5 12.6 6 21.5 
20169 0 5 13.7 9.3 22.5 
21070 0 5 13.7 10.4 23.5 
22808 0 5 11.5 8.2 25.5 
22809 0 5 11.5 9.3 25.5 
22911 0 5 14.8 10.4 25.5 
23769 0 5 13.7 9.3 26.5 
24666 0 5 13.7 6 27.5 
2232 0 5 15.9 12.6 2.5 
9408 0 5 14.8 13.7 10.5 
10274 0 5 13.7 14.8 11.5 
11115 0 5 11.5 15.9 12.5 
12950 0 5 12.6 11.5 14.5 
15647 0 5 12.6 14.8 17.5 
16548 0 5 12.6 13.7 18.5 
17473 0 5 13.7 13.7 19.5 
19335 0 5 15.9 15.9 21.5 
21133 0 5 15.9 13.7 23.5 
21015 0 5 11.5 15.9 23.5 
23773 0 5 13.7 13.7 26.5 
376 0 5 13.7 17 0.5 
5742 0 5 12.6 20.3 6.5 
6678 0 5 13.7 19.2 7.5 
10303 0 5 14.8 19.2 11.5 
11240 0 5 15.9 21.4 12.5 
12139 0 5 15.9 20.3 13.5 
17502 0 5 14.8 20.3 19.5 
17480 0 5 13.7 21.4 19.5 
18380 0 5 13.7 21.4 20.5 
19340 0 5 15.9 21.4 21.5 
20140 0 5 12.6 22.5 22.5 
21940 0 5 12.6 22.5 24.5 
21981 0 5 13.7 22.5 24.5 
26540 0 5 15.9 21.4 29.5 
1282 0 5 13.7 23.6 1.5 
2243 0 5 15.9 24.7 2.5 
3938 0 5 12.6 24.7 4.5 
5785 0 5 13.7 26.9 6.5 
6682 0 5 13.7 23.6 7.5 
6698 0 5 14.8 24.7 7.5 
7582 0 5 13.7 23.6 8.5 
8422 0 5 11.5 23.6 9.5 
9396 0 5 14.8 26.9 10.5 
12939 0 5 12.6 23.6 14.5 
14795 0 5 14.8 28 16.5 
16599 0 5 14.8 23.6 18.5 
16595 0 5 14.8 28 18.5 
20242 0 5 15.9 23.6 22.5 
21982 0 5 13.7 23.6 24.5 
23722 0 5 11.5 23.6 26.5 
333 0 5 12.6 30.2 0.5 
3087 0 5 13.7 29.1 3.5 
3093 0 5 14.8 30.2 3.5 
3930 0 5 11.5 32.4 4.5 
5734 0 5 12.6 29.1 6.5 
9328 0 5 11.5 30.2 10.5 
10234 0 5 12.6 29.1 11.5 
11192 0 5 14.8 31.3 12.5 
12034 0 5 12.6 29.1 13.5 
12090 0 5 13.7 32.4 13.5 
14793 0 5 14.8 30.2 16.5 
19291 0 5 14.8 32.4 21.5 
21091 0 5 14.8 32.4 23.5 
22893 0 5 14.8 30.2 25.5 
23789 0 5 13.7 31.3 26.5 
604 0 5 22.5 3.8 0.5 
1380 0 5 17 0.5 1.5 
1501 0 5 22.5 0.5 1.5 
7797 0 5 21.4 3.8 8.5 
12238 0 5 19.2 2.7 13.5 
13137 0 5 19.2 3.8 14.5 
13196 0 5 21.4 4.9 14.5 
13977 0 5 17 3.8 15.5 
14037 0 5 19.2 3.8 15.5 
16745 0 5 20.3 4.9 18.5 
17643 0 5 20.3 2.7 19.5 
19382 0 5 18.1 1.6 21.5 
20281 0 5 18.1 0.5 22.5 
22140 0 5 19.2 0.5 24.5 
23938 0 5 19.2 2.7 26.5 
26698 0 5 21.4 2.7 29.5 
534 0 5 19.2 7.1 0.5 
1388 0 5 18.1 8.2 1.5 
3187 0 5 18.1 7.1 3.5 
5875 0 5 17 6 6.5 
5948 0 5 20.3 8.2 6.5 
6909 0 5 22.5 9.3 7.5 
7807 0 5 22.5 7.1 8.5 
10492 0 5 21.4 9.3 11.5 
14107 0 5 22.5 7.1 15.5 
15007 0 5 22.5 7.1 16.5 
16748 0 5 20.3 8.2 18.5 
18595 0 5 21.4 6 20.5 
18474 0 5 17 7.1 20.5 
18547 0 5 20.3 7.1 20.5 
22209 0 5 22.5 9.3 24.5 
23995 0 5 21.4 6 26.5 
23948 0 5 20.3 8.2 26.5 
25747 0 5 20.3 7.1 28.5 
589 0 5 21.4 12.6 0.5 
2294 0 5 18.1 14.8 2.5 
2414 0 5 22.5 14.8 2.5 
6795 0 5 18.1 15.9 7.5 
10488 0 5 21.4 13.7 11.5 
10487 0 5 21.4 14.8 11.5 
11294 0 5 18.1 14.8 12.5 
13129 0 5 19.2 12.6 14.5 
13966 0 5 17 15.9 15.5 
15013 0 5 22.5 13.7 16.5 
16693 0 5 18.1 13.7 18.5 
16695 0 5 18.1 15.9 18.5 
17629 0 5 19.2 12.6 19.5 
17713 0 5 22.5 13.7 19.5 
18469 0 5 17 12.6 20.5 
20269 0 5 17 12.6 22.5 
22212 0 5 22.5 12.6 24.5 
22213 0 5 22.5 13.7 24.5 
23930 0 5 19.2 11.5 26.5 
23989 0 5 21.4 12.6 26.5 
25788 0 5 21.4 13.7 28.5 
8720 0 5 22.5 21.4 9.5 
9520 0 5 19.2 22.5 10.5 
12161 0 5 17 21.4 13.5 
13185 0 5 21.4 17 14.5 
13964 0 5 17 18.1 15.5 
15765 0 5 17 17 17.5 
19401 0 5 18.1 22.5 21.5 
20296 0 5 18.1 17 22.5 
23025 0 5 19.2 17 25.5 
575 0 5 21.4 28 0.5 
1462 0 5 20.3 23.6 1.5 
1523 0 5 22.5 24.7 1.5 
2304 0 5 18.1 25.8 2.5 
3275 0 5 21.4 28 3.5 
5002 0 5 18.1 23.6 5.5 
6022 0 5 22.5 23.6 6.5 
10477 0 5 21.4 25.8 11.5 
16719 0 5 19.2 23.6 18.5 
16776 0 5 21.4 26.9 18.5 
20318 0 5 19.2 24.7 22.5 
20317 0 5 19.2 25.8 22.5 
23003 0 5 18.1 24.7 25.5 
23964 0 5 20.3 25.8 26.5 
23965 0 5 20.3 26.9 26.5 
3274 0 5 21.4 29.1 3.5 
6814 0 5 19.2 29.1 7.5 
7774 0 5 21.4 29.1 8.5 
15873 0 5 21.4 30.2 17.5 
22051 0 5 17 32.4 24.5 
23972 0 5 21.4 31.3 26.5 
24809 0 5 18.1 31.3 27.5 
3418 0 5 25.8 2.7 3.5 
7018 0 5 25.8 2.7 7.5 
9723 0 5 26.9 2.7 10.5 
11521 0 5 26.9 0.5 12.5 
13321 0 5 26.9 0.5 14.5 
13263 0 5 24.7 2.7 14.5 
14163 0 5 24.7 2.7 15.5 
15963 0 5 24.7 2.7 17.5 
18664 0 5 24.7 3.8 20.5 
20578 0 5 28 2.7 22.5 
22322 0 5 26.9 1.6 24.5 
23159 0 5 23.6 1.6 25.5 
652 0 5 23.6 9.3 0.5 
1613 0 5 25.8 8.2 1.5 
5227 0 5 26.9 7.1 5.5 
7013 0 5 25.8 8.2 7.5 
9713 0 5 25.8 8.2 10.5 
16074 0 5 28 7.1 17.5 
15953 0 5 23.6 8.2 17.5 
16930 0 5 26.9 10.4 18.5 
20455 0 5 23.6 6 22.5 
21369 0 5 24.7 9.3 23.5 
23170 0 5 24.7 10.4 25.5 
24969 0 5 24.7 9.3 27.5 
7968 0 5 28 13.7 8.5 
8773 0 5 24.7 13.7 9.5 
16009 0 5 25.8 12.6 17.5 
19574 0 5 24.7 14.8 21.5 
20447 0 5 23.6 14.8 22.5 
23232 0 5 26.9 12.6 25.5 
25908 0 5 25.8 13.7 28.5 
5241 0 5 26.9 22.5 5.5 
6077 0 5 24.7 18.1 6.5 
10540 0 5 23.6 22.5 11.5 
12439 0 5 26.9 20.3 13.5 
13277 0 5 24.7 18.1 14.5 
13302 0 5 25.8 20.3 14.5 
15139 0 5 26.9 20.3 16.5 
16038 0 5 26.9 19.2 17.5 
18741 0 5 26.9 22.5 20.5 
19578 0 5 24.7 19.2 21.5 
20476 0 5 24.7 17 22.5 
21438 0 5 26.9 19.2 23.5 
24977 0 5 24.7 18.1 27.5 
1586 0 5 24.7 28 1.5 
3443 0 5 26.9 24.7 3.5 
9697 0 5 25.8 25.8 10.5 
9744 0 5 26.9 25.8 10.5 
9757 0 5 28 25.8 10.5 
11484 0 5 24.7 25.8 12.5 
12383 0 5 24.7 24.7 13.5 
15083 0 5 24.7 24.7 16.5 
21446 0 5 26.9 28 23.5 
24999 0 5 25.8 23.6 27.5 
25043 0 5 26.9 24.7 27.5 
25957 0 5 28 25.8 28.5 
26737 0 5 23.6 25.8 29.5 
2494 0 5 25.8 29.1 2.5 
6993 0 5 25.8 30.2 7.5 
9691 0 5 25.8 32.4 10.5 
13288 0 5 24.7 30.2 14.5 
13293 0 5 25.8 30.2 14.5 
23189 0 5 24.7 31.3 25.5 
23191 0 5 25.8 32.4 25.5 
25834 0 5 23.6 29.1 28.5 
2581 0 5 29.1 0.5 2.5 
4439 0 5 30.2 1.6 4.5 
5281 0 5 29.1 0.5 5.5 
6184 0 5 29.1 3.8 6.5 
8881 0 5 29.1 0.5 9.5 
8939 0 5 30.2 1.6 9.5 
9838 0 5 30.2 2.7 10.5 
14398 0 5 32.4 2.7 15.5 
14397 0 5 32.4 3.8 15.5 
16081 0 5 29.1 0.5 17.5 
22496 0 5 32.4 4.9 24.5 
23338 0 5 30.2 2.7 25.5 
23396 0 5 32.4 4.9 25.5 
24297 0 5 32.4 3.8 26.5 
26096 0 5 32.4 4.9 28.5 
27000 0 5 32.4 0.5 29.5 
4446 0 5 31.3 6 4.5 
4432 0 5 30.2 9.3 4.5 
5334 0 5 30.2 7.1 5.5 
10795 0 5 32.4 6 11.5 
12486 0 5 29.1 6 13.5 
14393 0 5 32.4 8.2 15.5 
16148 0 5 31.3 8.2 17.5 
826 0 5 30.2 15.9 0.5 
1788 0 5 32.4 13.7 1.5 
3530 0 5 30.2 11.5 3.5 
3492 0 5 29.1 12.6 3.5 
7153 0 5 31.3 13.7 7.5 
8928 0 5 30.2 13.7 9.5 
9887 0 5 32.4 14.8 10.5 
11628 0 5 30.2 13.7 12.5 
13452 0 5 31.3 12.6 14.5 
15230 0 5 30.2 11.5 16.5 
15226 0 5 30.2 15.9 16.5 
1785 0 5 32.4 17 1.5 
4420 0 5 30.2 22.5 4.5 
6281 0 5 32.4 21.4 6.5 
8925 0 5 30.2 17 9.5 
10698 0 5 29.1 19.2 11.5 
11622 0 5 30.2 20.3 12.5 
14382 0 5 32.4 20.3 15.5 
23380 0 5 32.4 22.5 25.5 
24198 0 5 29.1 19.2 26.5 
26058 0 5 31.3 19.2 28.5 
26060 0 5 31.3 21.4 28.5 
877 0 5 32.4 25.8 0.5 
9878 0 5 32.4 24.7 10.5 
11602 0 5 29.1 23.6 12.5 
12506 0 5 29.1 28 13.5 
26063 0 5 31.3 24.7 28.5 
2672 0 5 32.4 31.3 2.5 
7170 0 5 31.3 32.4 7.5 
12568 0 5 31.3 30.2 13.5 
13469 0 5 31.3 31.3 14.5 
14374 0 5 32.4 29.1 15.5 
22467 0 5 31.3 29.1 24.5 
ITEM: TIMESTEP
100000
ITEM: NUMBER OF ATOMS
475
ITEM: BOX BOUNDS pp pp pp
0.0000000000000000e+00 3.3789999999999999e+01
0.0000000000000000e+00 3.3789999999999999e+01
0.0000000000000000e+00 3.3789999999999999e+01
ITEM: ATOMS id mol type x y z 
1586 0 5 2.64546 0.293731 3.22399 
4686 0 5 4.17869 4.71668 4.85645 
4446 0 5 5.39058 0.265011 4.48483 
3661 0 5 4.44345 5.63098 0.570418 
8939 0 5 1.61931 1.12839 10.5147 
9878 0 5 2.72143 3.2995 9.82298 
9988 0 5 1.05873 0.113302 11.0071 
11787 0 5 1.69006 2.31015 11.7658 
13674 0 5 4.82261 1.45482 15.492 
14374 0 5 0.515983 0.686221 23.9349 
23338 0 5 2.08 0.582037 27.2756 
22496 0 5 5.12482 2.22198 27.3476 
22613 0 5 4.45458 5.14983 29.4778 
2672 0 5 3.00339 0.900261 31.124 
1164 0 5 4.43988 3.65728 30.8522 
6356 0 5 4.21714 3.62385 33.2675 
3613 0 5 0.441889 8.92742 0.584454 
4667 0 5 4.7476 10.0494 4.59114 
3614 0 5 1.87297 6.96829 5.9546 
6427 0 5 0.94068 8.00837 7.13258 
16387 0 5 5.52023 7.54019 14.6501 
14516 0 5 2.01035 10.0546 13.8649 
10805 0 5 0.902171 9.81919 15.5739 
14795 0 5 4.43254 5.97053 17.2821 
13568 0 5 2.90059 9.07503 17.9415 
19973 0 5 3.69456 8.77248 18.6568 
13558 0 5 0.932649 8.76699 21.5671 
23396 0 5 2.30716 8.60803 21.5933 
15230 0 5 0.499488 7.73527 22.4506 
16254 0 5 1.45588 10.6755 22.9803 
18111 0 5 1.10827 8.83567 27.8707 
21668 0 5 4.22403 11.8031 1.25184 
8925 0 5 1.10053 14.9855 4.85309 
1002 0 5 2.72326 15.7078 4.79106 
12860 0 5 1.8719 16.4014 10.8915 
13546 0 5 1.79581 11.7907 7.6226 
14451 0 5 0.011839 15.8933 15.4022 
14409 0 5 1.8442 15.6959 18.412 
18247 0 5 2.59926 12.5119 20.3678 
12486 0 5 0.163383 12.0657 17.0453 
24373 0 5 2.63574 15.5523 28.9606 
24314 0 5 4.96795 15.4992 30.38 
24311 0 5 0.0311373 15.0068 29.4146 
975 0 5 4.83519 16.0297 32.8985 
24307 0 5 5.49306 15.0698 33.2367 
24313 0 5 1.2612 17.4201 0.983156 
24434 0 5 4.54267 17.1436 1.10391 
25341 0 5 3.80491 17.583 2.52111 
6370 0 5 4.62162 18.2901 4.36451 
6281 0 5 4.23415 20.185 5.08217 
2718 0 5 3.71861 17.6795 6.28758 
6368 0 5 0.566198 18.7134 10.4091 
11628 0 5 3.10058 18.2166 12.8943 
14382 0 5 4.6304 19.1179 12.1832 
15314 0 5 2.84085 16.9978 14.6445 
23380 0 5 0.0981133 17.1413 19.2169 
14566 0 5 5.19141 20.5044 18.7096 
15403 0 5 1.32465 20.6155 16.9589 
21648 0 5 4.52869 18.5834 22.4576 
1788 0 5 3.9587 18.6484 32.171 
9162 0 5 4.88673 24.4654 7.80899 
9887 0 5 3.14047 26.8017 8.39297 
11781 0 5 1.05565 25.1105 10.8752 
15445 0 5 2.30555 24.2221 15.7691 
18999 0 5 2.6204 22.9395 17.4929 
14478 0 5 2.79801 25.0977 21.2878 
18101 0 5 0.83264 25.5192 21.8735 
19062 0 5 3.77009 27.5629 23.9349 
24363 0 5 1.8372 32.2361 3.06375 
25408 0 5 1.66805 30.358 5.86249 
10057 0 5 5.50626 30.1968 10.4738 
11878 0 5 5.07677 33.7348 5.7519 
8142 0 5 2.13882 29.425 6.50218 
8139 0 5 4.51374 30.2358 9.2574 
9021 0 5 2.38872 31.0099 9.38631 
11602 0 5 1.37282 29.9145 12.3812 
14514 0 5 0.85249 32.4345 18.3559 
16347 0 5 3.46324 33.0706 22.2703 
16595 0 5 1.06893 32.1665 20.3409 
19021 0 5 2.15817 29.6216 21.692 
18116 0 5 0.504046 31.7219 26.0196 
877 0 5 1.68385 33.4683 26.3378 
20751 0 5 2.32411 33.7194 23.8795 
24478 0 5 1.03473 33.2724 28.8649 
15539 0 5 5.43169 30.2158 28.9652 
32 0 5 0.775507 32.5156 31.1441 
4532 0 5 10.161 3.08893 1.17694 
4649 0 5 10.9198 1.04675 3.77387 
9328 0 5 8.67394 0.784105 6.13288 
3666 0 5 7.45635 4.1103 7.81538 
6566 0 5 10.5615 4.18271 7.88874 
9243 0 5 8.07709 5.63505 9.38864 
25409 0 5 10.6576 1.72741 9.78418 
8307 0 5 5.699 5.38672 15.5533 
11968 0 5 9.33276 2.17002 16.4741 
17248 0 5 10.6557 3.01299 20.279 
12125 0 5 8.41736 4.02885 19.9706 
14585 0 5 8.19355 5.03025 20.801 
16469 0 5 6.24689 1.386 24.2453 
20044 0 5 6.13725 1.71213 25.3737 
19974 0 5 8.71305 1.70776 29.5312 
4792 0 5 8.87065 9.53519 2.38074 
6655 0 5 9.97192 10.3019 4.09234 
24492 0 5 8.88911 9.84661 0.0360896 
9128 0 5 5.69027 7.51248 8.83284 
19928 0 5 6.81596 8.96229 20.5698 
17346 0 5 10.2964 10.5734 20.5655 
17643 0 5 10.8819 7.90487 23.6345 
22809 0 5 9.41222 8.58816 26.7419 
22808 0 5 11.0694 9.41605 27.8002 
2831 0 5 10.727 8.23243 31.7341 
2833 0 5 7.42601 12.0147 0.587301 
826 0 5 6.1927 11.5797 0.485165 
6429 0 5 6.34945 11.7316 3.69423 
5507 0 5 8.58318 11.7173 4.17949 
2923 0 5 7.72405 16.8078 2.29772 
7211 0 5 6.10208 14.7726 7.912 
10968 0 5 7.42379 11.9892 11.1457 
12008 0 5 5.66314 14.8176 10.3362 
11893 0 5 8.0272 12.9922 11.2877 
19084 0 5 10.3333 13.553 15.8962 
18233 0 5 9.79091 12.5157 18.3216 
19963 0 5 8.99221 16.0218 20.2047 
15495 0 5 7.80858 15.761 20.8011 
19255 0 5 5.71506 13.9038 26.8838 
24589 0 5 9.25621 15.2271 29.8536 
23624 0 5 8.75737 13.6666 31.8367 
376 0 5 9.01036 19.7865 1.42103 
24563 0 5 9.4892 17.951 2.6677 
5742 0 5 10.4054 18.3931 5.20767 
6678 0 5 6.80617 19.7989 6.6403 
2776 0 5 11.2092 20.6813 5.95115 
13662 0 5 7.04047 18.1369 10.2444 
10844 0 5 7.11519 19.6643 12.5678 
15579 0 5 6.12024 22.4916 11.3847 
21015 0 5 7.43688 19.3795 21.9045 
17199 0 5 5.70631 21.5878 16.9376 
17384 0 5 8.10348 20.9023 23.9162 
23620 0 5 6.76067 21.2842 25.7981 
24591 0 5 9.40783 17.1695 32.1633 
24579 0 5 9.90339 20.0785 31.1304 
11797 0 5 10.0608 27.3411 11.1599 
6460 0 5 8.0843 24.4597 7.00099 
6459 0 5 9.49134 27.1776 8.78934 
5559 0 5 11.1915 25.5046 8.12057 
11240 0 5 10.0458 22.5758 15.5222 
9202 0 5 10.6743 27.2771 13.5919 
8383 0 5 9.47082 24.3464 15.0691 
13640 0 5 9.46174 25.3808 15.7402 
17362 0 5 9.36535 26.2499 17.663 
17380 0 5 8.89203 23.0852 18.4639 
16281 0 5 8.87473 24.9895 20.0711 
23722 0 5 6.11281 27.019 24.7654 
5544 0 5 9.10321 26.3419 30.4069 
3930 0 5 10.7 33.467 2.26862 
1380 0 5 8.23608 33.1507 4.47122 
5550 0 5 6.71304 32.4139 6.37536 
10895 0 5 8.31504 31.5234 7.09707 
18983 0 5 6.76918 28.691 20.2434 
14579 0 5 7.78069 28.8918 21.0608 
15719 0 5 9.14787 30.2473 20.9178 
15575 0 5 10.4969 31.77 21.3852 
19263 0 5 8.77437 33.2886 21.3698 
19291 0 5 7.49051 32.4624 23.2505 
20765 0 5 7.91492 31.4766 22.6426 
2790 0 5 10.1688 31.2405 33.0362 
3778 0 5 11.8634 1.62987 2.94149 
291 0 5 12.9035 3.31589 4.26441 
2935 0 5 13.1051 5.35764 4.00963 
3729 0 5 12.3816 3.5803 5.71569 
12034 0 5 13.0136 0.938863 9.84113 
5555 0 5 11.9401 1.54007 9.81649 
11192 0 5 14.6548 5.11744 15.3935 
13977 0 5 14.7974 0.130873 11.5056 
13196 0 5 13.5455 0.422327 17.576 
10234 0 5 16.4889 4.01179 17.2516 
22051 0 5 13.3989 0.420603 20.7929 
19382 0 5 11.2617 2.34034 22.5816 
23972 0 5 12.7973 0.935233 24.8347 
25747 0 5 15.0282 5.16394 27.5972 
21982 0 5 13.273 1.08959 22.5752 
2159 0 5 16.169 4.81864 26.7332 
24418 0 5 16.399 1.94243 28.9942 
24573 0 5 14.4852 0.584955 30.8506 
1168 0 5 12.557 2.89737 29.9428 
4028 0 5 13.0432 10.4133 3.02911 
9408 0 5 15.4509 6.37045 9.84502 
13854 0 5 11.8416 6.87082 15.3554 
15647 0 5 14.9755 7.1033 15.271 
15655 0 5 11.8042 7.98265 18.2202 
16616 0 5 13.1589 8.02121 20.4429 
23769 0 5 16.8379 9.17271 23.7286 
4911 0 5 14.1884 8.74475 24.397 
16498 0 5 12.3085 6.39165 27.561 
22911 0 5 13.2922 9.42187 27.7104 
3187 0 5 16.5839 7.25235 28.1295 
18547 0 5 15.7428 9.53671 28.2082 
9290 0 5 13.8681 15.926 10.8069 
11115 0 5 13.7096 16.6004 7.17139 
12950 0 5 13.6136 11.9708 11.6471 
11084 0 5 15.7439 14.5804 13.4963 
17473 0 5 14.2741 15.2589 16.1013 
10274 0 5 13.8019 15.6538 17.3284 
16548 0 5 15.1343 12.0255 18.3942 
14638 0 5 13.1188 12.0737 18.7965 
21133 0 5 14.1475 12.7772 19.0758 
16385 0 5 13.2542 12.3878 20.0216 
21070 0 5 15.5728 13.9684 19.9727 
18427 0 5 14.9617 13.2323 22.2222 
20169 0 5 15.0592 11.2867 23.6107 
17453 0 5 14.3441 15.9537 25.2067 
23773 0 5 16.0977 16.3849 33.7191 
4785 0 5 13.9727 13.7725 33.6822 
21940 0 5 14.7872 14.0986 31.5007 
10303 0 5 14.586 18.5507 6.33189 
2294 0 5 15.8888 20.1497 5.95356 
6682 0 5 16.1546 17.89 8.88202 
11862 0 5 12.0603 18.5752 11.6817 
9520 0 5 13.6827 17.7699 13.6389 
11956 0 5 12.3742 19.9224 13.8996 
18380 0 5 11.7959 21.8907 15.6182 
17502 0 5 15.2795 22.3698 20.1286 
16599 0 5 13.681 17.1148 23.6146 
2243 0 5 15.1381 21.2196 31.378 
6698 0 5 13.6426 23.4666 6.62417 
8422 0 5 16.7462 27.3307 10.9005 
15765 0 5 16.568 23.3007 15.167 
12939 0 5 12.6446 22.5997 18.5714 
23674 0 5 12.9388 23.87 23.0331 
23763 0 5 12.4713 26.6853 26.3988 
18211 0 5 14.6556 26.769 26.5726 
21860 0 5 13.3642 22.8633 23.657 
3938 0 5 11.5026 27.3677 33.6949 
1282 0 5 16.2819 26.0069 32.6327 
24665 0 5 11.8313 30.8135 3.5193 
6565 0 5 16.4712 28.9246 5.71758 
7774 0 5 14.043 28.4354 11.2625 
3093 0 5 15.0973 29.7872 7.18136 
5734 0 5 16.186 32.1928 10.6795 
12090 0 5 14.6942 32.1659 10.9941 
15723 0 5 15.9682 31.6916 11.691 
12139 0 5 14.7497 32.2689 14.1723 
14037 0 5 13.4592 32.406 15.6759 
22140 0 5 16.8283 33.4263 16.651 
24506 0 5 13.8621 32.1501 29.0084 
9697 0 5 18.5504 3.60521 0.0448849 
534 0 5 17.8391 3.98308 2.42913 
9691 0 5 21.861 4.81695 2.01301 
7018 0 5 20.8512 4.02059 3.93002 
2154 0 5 18.2476 2.64928 6.07456 
7797 0 5 19.3689 4.47536 6.80868 
9396 0 5 19.046 1.20622 8.92348 
16009 0 5 20.1837 2.04902 14.0428 
9723 0 5 21.3512 2.26556 15.6573 
13321 0 5 19.2442 1.68056 16.0315 
15007 0 5 18.1171 1.65415 18.2177 
20281 0 5 18.4364 0.28531 19.1034 
18595 0 5 21.8997 4.60318 18.7734 
21369 0 5 19.3458 3.52489 23.6651 
23964 0 5 18.1013 -0.00270636 28.4314 
333 0 5 20.6023 0.134187 28.5886 
23191 0 5 21.6397 2.35132 31.0548 
9298 0 5 20.0633 6.69327 8.5728 
10266 0 5 18.3961 8.98744 10.8955 
8467 0 5 17.6694 5.68271 11.7064 
6795 0 5 17.6261 8.97408 11.7219 
15953 0 5 18.0126 11.0069 15.7578 
18474 0 5 19.2301 6.31943 16.8545 
13137 0 5 20.8956 7.40742 17.8209 
17629 0 5 18.5541 7.21954 19.3619 
20455 0 5 20.8343 5.82781 21.9774 
23995 0 5 22.4622 9.433 24.2696 
23948 0 5 22.1657 8.11711 26.939 
7622 0 5 17.7247 6.42103 31.5087 
652 0 5 21.2585 8.67911 31.214 
24666 0 5 17.5799 11.0376 30.4283 
5948 0 5 21.6968 11.8931 2.20757 
20269 0 5 17.9982 13.9079 19.1946 
17713 0 5 21.4092 13.2256 21.4436 
22212 0 5 20.139 14.1814 22.6568 
20447 0 5 21.585 15.0032 26.6295 
353 0 5 21.8065 16.0666 26.5429 
23930 0 5 19.6254 12.8167 27.7242 
589 0 5 21.4832 13.4842 28.726 
2232 0 5 18.9163 12.1701 31.6276 
25788 0 5 19.9312 17.0068 3.16144 
6077 0 5 22.1736 19.7463 5.88166 
10540 0 5 21.9641 21.1318 8.57047 
12161 0 5 16.9696 18.3948 10.8859 
13966 0 5 21.8372 18.1649 12.6091 
18469 0 5 17.0572 17.3116 13.2077 
16693 0 5 17.752 18.2956 17.8864 
13277 0 5 20.9096 20.369 17.6119 
16695 0 5 17.5226 20.8082 18.0028 
22213 0 5 18.0793 19.7144 24.2898 
19335 0 5 17.7655 17.3592 26.0407 
20296 0 5 18.4584 19.8651 28.4706 
23989 0 5 21.736 21.933 29.1311 
5785 0 5 18.4121 23.8597 2.03489 
2304 0 5 19.449 24.6591 2.18821 
12238 0 5 17.7243 26.9617 6.7454 
11484 0 5 22.3528 24.5367 10.7138 
7582 0 5 17.1912 26.786 11.9694 
13964 0 5 19.6392 23.4935 13.301 
17480 0 5 18.8201 25.3645 14.6451 
16719 0 5 18.9831 23.8967 18.927 
20140 0 5 17.7785 24.5772 23.8062 
21091 0 5 18.1063 23.7746 25.8805 
19340 0 5 18.1041 23.3329 28.1477 
20242 0 5 17.093 28.0598 29.6349 
21981 0 5 18.0829 24.9283 30.1228 
26540 0 5 21.8899 27.2305 31.9111 
1501 0 5 19.4921 33.5576 3.12424 
24809 0 5 20.1446 31.8646 0.791922 
1462 0 5 19.1974 29.7403 1.32287 
3087 0 5 19.3526 32.1639 1.90509 
3418 0 5 20.4933 31.4291 2.02582 
22893 0 5 19.3532 30.4112 3.68323 
10477 0 5 18.2111 31.0917 8.28853 
14163 0 5 17.8344 29.7625 12.6153 
14793 0 5 19.4769 33.6195 14.5107 
20318 0 5 19.0555 30.3014 18.4109 
19401 0 5 17.3256 29.4757 19.6909 
15873 0 5 19.5144 33.5929 18.4793 
23003 0 5 20.0353 32.7364 30.1755 
23965 0 5 18.0473 32.997 33.6243 
604 0 5 19.4422 32.057 32.5102 
4432 0 5 25.1712 5.37669 5.05778 
6814 0 5 23.8983 0.767186 3.92652 
7013 0 5 26.1558 4.98154 9.68728 
7170 0 5 25.911 0.20233 10.1811 
11521 0 5 23.6948 5.19106 12.3839 
5281 0 5 27.5108 3.3117 12.3788 
9838 0 5 27.4877 4.38769 13.1146 
13263 0 5 27.8044 0.299875 14.1249 
16745 0 5 24.8768 5.01095 18.0829 
16748 0 5 24.3042 0.42556 22.3216 
13288 0 5 26.4405 0.46815 19.4516 
18001 0 5 26.7081 4.35353 26.8574 
18664 0 5 26.8797 5.43137 26.9669 
25957 0 5 23.5246 1.10825 30.7103 
1388 0 5 27.6643 7.59668 1.09071 
5875 0 5 22.8635 7.69868 3.9007 
6909 0 5 27.3189 7.44124 9.93219 
14107 0 5 26.7471 6.48424 13.0836 
16930 0 5 27.6838 9.53759 16.0992 
10488 0 5 23.2388 11.1292 13.9034 
10492 0 5 24.9882 11.0659 18.352 
20578 0 5 25.7269 7.94519 22.8541 
15963 0 5 23.5559 8.00368 24.1772 
23170 0 5 25.9046 9.13957 28.5265 
23232 0 5 25.6967 10.9047 31.0549 
25908 0 5 23.2209 9.86978 33.5411 
8773 0 5 26.7565 15.0164 8.53284 
14397 0 5 26.6954 11.8293 13.6895 
11294 0 5 22.8023 12.7721 13.948 
16074 0 5 26.7189 13.3332 16.7555 
15013 0 5 26.11 14.1109 19.8815 
20476 0 5 27.2792 16.2017 23.0456 
24198 0 5 27.2501 15.287 25.473 
22209 0 5 24.0244 12.4288 26.6345 
5241 0 5 25.8814 21.4687 5.79382 
10698 0 5 25.6566 21.7494 9.90247 
15139 0 5 27.8664 21.3676 12.0891 
15226 0 5 25.6539 17.2255 14.4796 
6022 0 5 24.5456 17.7501 11.4609 
13185 0 5 26.0005 17.8309 16.4411 
8720 0 5 24.2746 22.1103 16.7124 
13129 0 5 22.8494 20.9276 17.5717 
19574 0 5 26.8399 18.9081 21.5126 
19578 0 5 23.0865 21.603 26.9523 
25043 0 5 26.4716 18.9925 30.2766 
5002 0 5 25.5269 22.9154 2.05418 
9757 0 5 23.7432 25.5326 9.59949 
6184 0 5 26.6231 28.0364 9.0989 
9744 0 5 22.5542 27.896 8.22823 
12439 0 5 25.5062 25.1178 12.2276 
3274 0 5 23.5889 26.032 11.9352 
11722 0 5 25.3119 24.1312 11.3996 
13302 0 5 23.6962 22.8337 15.2898 
15083 0 5 23.3482 23.0034 22.4244 
23025 0 5 24.4522 24.4793 20.6231 
16776 0 5 26.0688 24.3765 19.7958 
18741 0 5 24.7214 25.0921 23.2831 
26737 0 5 26.1733 28.0659 31.0045 
24977 0 5 22.923 22.5823 30.8034 
3443 0 5 27.833 26.7787 30.767 
1523 0 5 26.0337 32.6969 3.9604 
26698 0 5 25.6113 32.8972 5.9761 
2581 0 5 25.6307 29.9248 7.11828 
6358 0 5 27.9231 32.1506 6.62204 
12383 0 5 25.5351 28.9836 9.2439 
6993 0 5 22.9276 32.5358 8.76996 
20317 0 5 23.6746 29.9247 15.3788 
14398 0 5 25.5984 31.5741 15.5703 
23189 0 5 26.5546 28.5458 25.1139 
27000 0 5 24.9201 31.4962 25.6569 
23789 0 5 24.7631 30.312 33.7082 
575 0 5 27.5691 31.5669 31.8727 
2414 0 5 23.3562 28.6002 32.5101 
23159 0 5 27.4243 29.3606 32.3607 
23938 0 5 23.5424 32.6223 33.0578 
1828 0 5 29.5754 5.40146 1.93075 
5227 0 5 29.9712 3.84239 5.60908 
4625 0 5 32.3512 2.39281 6.13239 
12506 0 5 28.8019 0.3922 15.0703 
10795 0 5 29.2173 5.15686 16.9712 
9087 0 5 33.3755 0.323266 17.8368 
21446 0 5 30.4885 4.59795 18.7634 
16081 0 5 31.8744 0.0989628 26.444 
18240 0 5 30.6472 0.565935 24.0782 
24297 0 5 31.7714 2.98763 24.2684 
25268 0 5 30.3698 2.73841 25.1012 
25834 0 5 28.8923 2.90572 28.7013 
19858 0 5 32.9705 0.444674 29.1547 
20728 0 5 33.3183 2.41477 29.9583 
24969 0 5 28.8814 5.44956 33.0117 
22503 0 5 32.3103 2.80255 32.3308 
3530 0 5 29.5603 10.0476 4.03898 
7807 0 5 31.0932 9.70797 6.75415 
3492 0 5 32.3984 9.66173 7.2308 
15662 0 5 33.5001 5.82176 17.4453 
15310 0 5 32.163 10.3266 19.4811 
18053 0 5 32.779 10.3084 16.9328 
5510 0 5 32.5313 8.72553 33.1174 
26096 0 5 28.3162 10.376 33.3973 
10487 0 5 29.354 11.6651 6.29599 
5334 0 5 29.9629 12.5927 8.21137 
9713 0 5 32.2671 11.7687 10.6231 
8928 0 5 31.6904 15.1339 15.4616 
7968 0 5 32.9804 15.1236 15.7299 
10811 0 5 29.6282 15.525 16.4825 
14393 0 5 33.5369 13.4861 18.6253 
16148 0 5 31.1859 12.0257 20.7071 
14455 0 5 31.1455 11.6955 22.0368 
21438 0 5 33.3741 15.6475 25.042 
26058 0 5 31.6285 14.1717 27.5421 
25277 0 5 33.4073 13.925 29.3219 
190 0 5 30.6061 15.1094 32.5886 
1613 0 5 30.072 14.6023 33.6418 
7153 0 5 32.6703 21.2403 2.6594 
981 0 5 32.4253 20.8525 6.85864 
1785 0 5 33.5562 20.3669 6.26649 
11622 0 5 28.5854 19.7671 10.1911 
24345 0 5 33.0603 21.3039 5.65412 
16272 0 5 32.1646 17.3305 14.9362 
13452 0 5 30.3726 17.6581 16.5654 
16038 0 5 29.0193 17.1756 18.4607 
22522 0 5 32.3002 19.8562 28.3998 
23446 0 5 32.0652 21.4755 32.139 
4439 0 5 29.6104 27.7934 0.549001 
20801 0 5 31.0634 23.3424 21.0453 
18024 0 5 31.5724 24.3045 24.4938 
21620 0 5 32.5839 23.4954 26.0671 
24335 0 5 32.748 24.9683 27.6057 
20717 0 5 33.78 23.11 22.8458 
24999 0 5 29.8295 26.0585 29.8703 
26063 0 5 30.363 25.6232 31.813 
4420 0 5 29.142 23.0067 32.259 
2799 0 5 31.236 30.0459 1.41941 
8881 0 5 33.6415 32.6315 2.96565 
3275 0 5 29.9846 33.6401 3.13453 
3611 0 5 32.6172 31.9856 3.6314 
9037 0 5 32.8266 28.9762 5.41893 
2494 0 5 31.7572 30.2292 8.49017 
9050 0 5 32.4563 33.5514 11.3216 
16206 0 5 30.6823 33.1992 12.6396 
13469 0 5 29.4234 31.9659 13.9344 
13293 0 5 30.6718 29.1004 14.1779 
17247 0 5 29.5537 31.0596 16.4179 
12568 0 5 33.6955 29.8141 17.2074 
22467 0 5 31.013 29.7712 22.1343 
22322 0 5 31.7232 31.1403 27.8388 
26060 0 5 31.642 28.8243 28.881 
21602 0 5 31.4308 28.8745 30.2266 
ITEM: TIMESTEP
200000
ITEM: NUMBER OF ATOMS
475
ITEM: BOX BOUNDS pp pp pp
0.0000000000000000e+00 3.3789999999999999e+01
0.0000000000000000e+00 3.3789999999999999e+01
0.0000000000000000e+00 3.3789999999999999e+01
ITEM: ATOMS id mol type x y z 
1586 0 5 2.87877 0.849994 3.12425 
4446 0 5 5.15059 1.44433 5.44356 
24363 0 5 1.99946 0.066829 3.55069 
11878 0 5 4.41519 0.676037 6.1034 
9878 0 5 2.25506 4.15047 9.61044 
9988 0 5 1.00141 1.14878 11.0668 
8939 0 5 1.5481 2.34835 10.6413 
11787 0 5 1.91588 2.44346 13.2585 
13674 0 5 5.31253 2.10224 15.7896 
16595 0 5 1.73158 0.15065 20.2586 
16347 0 5 3.16004 0.521551 22.6876 
20751 0 5 2.58734 0.839938 23.6725 
14374 0 5 0.864311 1.69643 24.2447 
877 0 5 1.42083 0.404826 26.3742 
22496 0 5 5.14311 3.08539 27.7801 
23338 0 5 1.61843 2.50627 28.0229 
24478 0 5 1.68988 0.397134 28.7157 
6356 0 5 4.17951 4.9186 33.2439 
2672 0 5 2.55786 1.4161 31.8128 
1164 0 5 4.70057 5.10351 32.0192 
4667 0 5 4.43578 10.9681 4.76561 
3613 0 5 0.553224 9.52117 1.06071 
3661 0 5 3.77184 6.92696 1.20048 
3614 0 5 1.76401 7.66254 5.31214 
6427 0 5 1.2113 8.43773 6.31827 
4686 0 5 3.60819 5.85209 5.62245 
16387 0 5 5.418 8.70822 14.963 
14516 0 5 1.97013 10.9603 14.2105 
10805 0 5 0.709456 10.3295 15.6806 
15662 0 5 0.111924 6.67876 17.7507 
14795 0 5 4.26267 7.31507 17.3188 
13568 0 5 3.12876 10.306 18.0671 
19973 0 5 3.48383 9.85539 19.2084 
13558 0 5 0.681913 9.51289 21.74 
23396 0 5 1.95566 9.44733 21.9965 
15230 0 5 0.411708 8.74611 22.8289 
18111 0 5 0.83801 9.73929 28.071 
22613 0 5 4.19077 5.89579 29.6998 
21668 0 5 4.57677 12.3513 2.49039 
1002 0 5 3.13105 16.8195 5.0476 