ITEM: TIMESTEP
7000000
ITEM: NUMBER OF ATOMS
475
ITEM: BOX BOUNDS pp pp pp
7.1354277009520928e-01 3.3076457229894366e+01
7.1354277009520928e-01 3.3076457229894366e+01
7.1354277009520928e-01 3.3076457229894366e+01
ITEM: ATOMS id mol type x y z 
2232 0 5 1.69056 3.75164 3.68186 
17713 0 5 0.888399 2.13899 4.51585 
981 0 5 4.69746 2.98691 5.30218 
23396 0 5 4.52733 0.923252 7.86193 
21133 0 5 4.22498 4.44457 6.29345 
25043 0 5 5.64127 4.92836 10.9191 
9087 0 5 3.25719 6.02273 12.266 
1282 0 5 4.93757 3.67508 13.4132 
2243 0 5 5.49808 4.96907 16.3246 
13966 0 5 1.82493 4.17516 19.4622 
22503 0 5 5.37003 4.98167 22.8668 
14455 0 5 3.89761 3.87005 25.2131 
13293 0 5 0.779274 4.43726 31.8606 
5227 0 5 4.29239 8.40168 1.44923 
1002 0 5 2.95036 9.48817 2.8024 
12486 0 5 2.74133 7.13116 8.47014 
1380 0 5 5.59066 8.57959 13.2688 
1388 0 5 3.65775 9.20259 24.0141 
19291 0 5 5.67106 11.2356 27.5426 
5555 0 5 0.970095 6.22351 27.7788 
9021 0 5 4.48269 9.84685 27.764 
22213 0 5 1.62504 9.57784 29.5404 
1168 0 5 3.71456 14.6157 1.95592 
24345 0 5 2.30813 16.4147 2.37515 
15647 0 5 2.14472 11.8975 6.8085 
21015 0 5 2.14794 12.4431 9.1657 
13977 0 5 1.44281 14.8611 8.40551 
15007 0 5 6.03263 14.5741 10.6198 
2159 0 5 1.02528 14.3163 12.1955 
24506 0 5 5.03402 14.9945 13.4951 
11797 0 5 5.80538 12.0078 22.8077 
14516 0 5 5.49967 14.6577 22.7061 
8142 0 5 5.54335 15.9199 28.1371 
190 0 5 4.34668 15.5675 30.5899 
15662 0 5 2.22111 14.527 32.8162 
10477 0 5 4.5099 18.6403 0.838643 
2672 0 5 3.0242 17.8007 8.34326 
10811 0 5 2.16635 17.469 10.8933 
9520 0 5 4.01079 17.2185 11.2122 
11192 0 5 5.43714 22.0091 12.4655 
5507 0 5 3.86513 21.8006 15.8275 
376 0 5 2.02573 18.7167 23.1819 
5334 0 5 3.90595 21.6865 22.8325 
16498 0 5 3.90528 17.8518 27.1014 
6370 0 5 2.66746 21.8147 30.4499 
7774 0 5 2.46506 22.712 0.996993 
9744 0 5 1.61009 27.5078 3.67158 
2718 0 5 5.17904 26.7863 2.71093 
16930 0 5 2.30444 24.6251 5.60471 
25747 0 5 6.1001 25.326 4.74499 
14638 0 5 3.45454 23.0369 6.92361 
9128 0 5 2.09825 22.3812 9.38185 
3492 0 5 5.91841 23.4924 9.00891 
6795 0 5 2.33733 27.5264 8.89648 
20717 0 5 5.49298 25.9851 10.5497 
22140 0 5 1.2079 23.2317 12.5994 
13469 0 5 2.12388 23.6056 12.9791 
353 0 5 3.35856 25.4978 12.1199 
9037 0 5 1.24134 22.9742 13.94 
10895 0 5 1.87247 24.173 13.9425 
19382 0 5 5.48107 26.7663 14.1883 
16281 0 5 4.81893 23.0321 15.81 
23773 0 5 4.63522 22.5471 18.5919 
13263 0 5 4.22249 26.1875 21.8282 
8422 0 5 1.99479 24.5736 23.0644 
18247 0 5 3.5401 26.2476 22.7595 
21860 0 5 1.02296 23.3083 25.2796 
20140 0 5 5.41914 24.8365 24.2132 
21648 0 5 5.99438 24.5622 25.1147 
2776 0 5 5.76236 22.6471 31.5256 
9988 0 5 2.8304 30.1365 3.14852 
24809 0 5 3.27239 30.8441 6.75161 
16254 0 5 3.11942 28.7721 9.43939 
6655 0 5 1.35133 32.8606 10.8307 
21940 0 5 0.721104 29.7948 18.6822 
5281 0 5 4.35531 29.8454 19.6213 
23191 0 5 5.03925 31.402 19.6891 
3666 0 5 1.00391 30.1944 23.0836 
10234 0 5 4.80477 28.5995 30.0851 
20578 0 5 5.56066 32.9617 30.7995 
23159 0 5 3.21242 27.903 32.091 
12238 0 5 2.39594 29.6435 32.5709 
5734 0 5 7.04215 2.16932 10.7389 
24591 0 5 10.9845 3.67155 13.7637 
2581 0 5 9.35178 3.02161 18.047 
13288 0 5 6.1098 5.11093 21.0902 
7968 0 5 8.00319 2.79259 23.6439 
15310 0 5 6.31709 5.28162 23.233 
18101 0 5 11.396 1.53873 25.4121 
13854 0 5 10.0071 5.29396 24.3819 
17384 0 5 6.87928 3.26242 29.571 
19335 0 5 8.48857 3.14455 32.5943 
19578 0 5 8.9938 3.47163 31.3379 
24373 0 5 9.96642 10.204 1.31573 
20455 0 5 8.48099 11.3536 7.43934 
20281 0 5 7.15684 6.2585 9.64475 
20801 0 5 11.0481 6.80407 9.25814 
20044 0 5 7.92323 9.03259 10.2864 
13129 0 5 6.43786 9.76887 11.3544 
6368 0 5 6.84805 8.85129 11.6686 
21446 0 5 10.7834 9.58316 13.289 
6682 0 5 9.51647 8.62599 14.2466 
22212 0 5 7.07507 11.1919 14.8197 
16081 0 5 10.225 10.3409 14.2609 
19062 0 5 10.9606 10.5502 14.9495 
12161 0 5 9.49411 11.4594 25.2477 
14374 0 5 7.08924 11.0641 29.7134 
18664 0 5 10.61 15.9818 0.976379 
19255 0 5 11.2369 14.2105 5.73856 
15314 0 5 7.60938 12.8258 7.33228 
12034 0 5 7.87592 12.0538 8.30096 
7211 0 5 7.77081 13.456 10.5732 
26058 0 5 10.6747 15.7356 17.3581 
24297 0 5 9.17588 13.3024 24.2341 
13302 0 5 7.21547 15.9206 25.8536 
16595 0 5 8.54664 12.6569 26.222 
14107 0 5 9.37924 16.4608 26.2944 
7797 0 5 10.4028 15.837 31.0685 
12383 0 5 8.88933 18.3171 2.39716 
19574 0 5 9.74227 21.9639 1.43853 
3613 0 5 8.46708 19.0676 3.81954 
2923 0 5 6.26338 20.5298 3.02042 
15723 0 5 8.83871 22.1504 3.2887 
17502 0 5 7.43082 17.873 4.78987 
6566 0 5 11.3764 20.2982 6.97458 
23938 0 5 7.51432 21.7397 6.20651 
23624 0 5 7.3919 16.9108 9.21611 
15953 0 5 9.16406 19.2782 14.682 
14397 0 5 6.92001 17.1628 15.3908 
10488 0 5 8.87387 19.6655 17.6782 
5559 0 5 10.0329 21.925 17.1156 
21369 0 5 9.62695 18.081 20.25 
7170 0 5 6.46247 18.7957 21.5411 
11787 0 5 6.68056 19.5884 24.1859 
2494 0 5 7.15168 21.2384 27.5887 
14409 0 5 8.4383 20.5779 27.0741 
11294 0 5 8.7386 22.1932 31.9882 
19973 0 5 11.3261 23.8468 1.79597 
15226 0 5 11.4901 24.666 3.68139 
21438 0 5 6.39139 25.919 6.61519 
9697 0 5 8.66512 23.6561 8.90006 
291 0 5 7.90738 24.8265 17.8974 
19340 0 5 6.95602 23.9528 25.3487 
23170 0 5 7.19951 27.0959 25.7093 
19928 0 5 7.79157 32.1861 7.20908 
13568 0 5 6.22747 28.6014 12.842 
18001 0 5 9.70163 30.799 13.7621 
9723 0 5 11.3273 29.8709 18.1081 
7153 0 5 6.52574 29.6972 20.2526 
9713 0 5 9.93016 32.3677 20.2275 
24969 0 5 10.9565 33.0658 19.1254 
17248 0 5 6.11922 28.6395 26.3883 
12090 0 5 9.45568 29.2701 26.6153 
16272 0 5 7.65713 27.8618 27.8249 
23620 0 5 7.55573 30.1303 31.5232 
17473 0 5 7.45247 32.1753 31.3768 
16347 0 5 13.8349 2.47586 11.2489 
9408 0 5 12.7632 5.53354 10.0595 
16206 0 5 15.2474 4.04403 12.7033 
18240 0 5 16.6494 5.13136 15.0089 
14478 0 5 16.4071 2.0224 21.3991 
15655 0 5 15.7522 2.30818 25.0013 
16385 0 5 14.0671 4.52958 27.2355 
10844 0 5 11.6798 10.83 6.37513 
13558 0 5 13.5518 11.2181 8.69415 
13964 0 5 16.6173 10.0302 8.97928 
17362 0 5 15.5641 7.4493 11.1789 
13196 0 5 12.7473 10.9789 10.3334 
14566 0 5 11.5543 7.57983 13.6559 
10303 0 5 15.2816 6.53162 13.9187 
16387 0 5 14.7625 9.20407 15.643 
24307 0 5 13.2103 10.0954 15.8658 
13546 0 5 16.8702 11.2733 19.2629 
21981 0 5 14.5474 9.629 25.3999 
9757 0 5 13.2556 9.45015 28.2611 
3614 0 5 16.3371 9.2473 31.0127 
23674 0 5 15.3693 9.19486 30.4566 
14793 0 5 12.6 15.2471 0.780048 
5875 0 5 13.4756 15.1581 5.80079 
9887 0 5 14.1687 15.6653 6.3398 
12139 0 5 15.3859 16.7424 6.35788 
11968 0 5 14.3977 14.8232 11.0644 
18380 0 5 15.026 16.0307 11.8484 
5002 0 5 12.5206 11.9982 13.4112 
1828 0 5 15.7785 11.7754 13.4263 
3187 0 5 15.7658 12.6915 18.4727 
3729 0 5 12.5324 16.8607 17.6353 
652 0 5 12.8353 12.4009 23.5677 
16776 0 5 13.8292 14.3762 26.6561 
20242 0 5 14.1747 13.5354 29.0545 
10795 0 5 15.2961 13.573 28.0669 
24589 0 5 15.5161 16.5734 28.1205 
13674 0 5 11.8922 12.4572 31.2223 
14585 0 5 12.4509 19.8248 1.60822 
2833 0 5 12.8535 20.4315 2.65555 
21602 0 5 11.9254 21.1442 4.33141 
16074 0 5 13.902 19.9193 8.77844 
9878 0 5 12.4585 19.8846 10.9705 
5241 0 5 12.1929 20.2428 15.8241 
4439 0 5 13.0741 19.2242 15.2153 
13277 0 5 16.0641 21.1873 15.8443 
10266 0 5 12.9176 19.6286 17.5225 
14795 0 5 14.7594 20.9011 18.3225 
3274 0 5 16.6762 17.4421 19.3865 
6459 0 5 11.6778 19.6503 19.6813 
14579 0 5 12.1811 18.4871 23.8336 
20765 0 5 14.2682 17.9535 23.1099 
23972 0 5 14.265 19.9834 23.5005 
11115 0 5 11.9696 19.8426 28.8739 
3275 0 5 15.083 20.0654 27.8004 
6678 0 5 12.8219 20.182 31.9202 
25834 0 5 13.4663 20.9909 31.6291 
15445 0 5 12.5435 24.0334 3.6308 
22911 0 5 15.1699 27.0507 6.81485 
26737 0 5 13.7535 23.3176 8.06664 
6427 0 5 13.4346 26.6433 9.10855 
4911 0 5 11.8579 24.2569 12.9202 
21620 0 5 14.3017 23.2393 14.1733 
8928 0 5 14.9765 25.2646 14.7455 
11521 0 5 16.7133 25.9629 17.1891 
22808 0 5 13.7724 23.1966 22.5194 
19858 0 5 14.2859 26.5703 23.5261 
18547 0 5 14.834 27.2944 24.9951 
22496 0 5 12.953 26.7845 29.3364 
9838 0 5 12.8831 24.9897 32.9855 
25341 0 5 15.5999 24.9863 31.8303 
14393 0 5 12.9317 27.4235 32.6657 
15765 0 5 11.7202 31.9686 2.67528 
23722 0 5 13.1466 29.379 18.8371 
24563 0 5 12.6924 29.709 21.1472 
15579 0 5 11.6164 29.4864 26.841 
27000 0 5 16.2603 30.0493 26.0692 
2414 0 5 14.7309 30.9987 28.8444 
2799 0 5 22.1266 5.88479 3.6651 
8467 0 5 21.5487 0.790538 5.24152 
24999 0 5 20.7928 5.47616 5.24047 
10492 0 5 18.6273 4.27562 6.73938 
4792 0 5 20.212 1.45043 8.97096 
23930 0 5 20.7187 5.47666 8.37737 
13321 0 5 18.2645 2.04346 10.8376 
24573 0 5 20.2253 3.16709 10.5202 
10057 0 5 22.0529 2.96123 12.0733 
1788 0 5 19.7522 4.13581 16.2912 
24313 0 5 19.1569 4.34092 17.1453 
7018 0 5 19.7596 5.36 18.2559 
589 0 5 21.6629 3.89365 19.3405 
11628 0 5 19.353 6.06057 19.9092 
22893 0 5 17.1475 1.20289 20.558 
20751 0 5 20.7047 1.07869 23.821 
15963 0 5 19.6386 1.71499 29.5503 
2831 0 5 19.4611 6.1308 1.20274 
16009 0 5 20.064 7.95555 2.91631 
21070 0 5 19.5476 10.9072 6.82414 
24311 0 5 18.9256 10.0604 10.6197 
3938 0 5 19.2479 8.21872 17.2192 
9298 0 5 20.2415 11.2536 17.8921 
17643 0 5 21.2726 16.6472 3.85095 
4686 0 5 19.151 13.9291 4.4239 
2304 0 5 20.3022 11.6491 7.04978 
21091 0 5 19.3013 14.0948 8.7938 
6022 0 5 21.7195 15.7031 11.3202 
24977 0 5 19.8442 13.561 12.2979 
1523 0 5 21.5193 14.3694 11.8057 
25268 0 5 19.2484 13.0482 15.0366 
3087 0 5 20.275 12.2824 14.9971 
9396 0 5 20.8792 14.6895 14.2318 
22209 0 5 21.0514 11.5407 15.4316 
6909 0 5 22.269 14.6691 17.6182 
4649 0 5 21.5577 16.5579 17.5575 
24434 0 5 21.8955 15.6109 20.4618 
12860 0 5 21.2391 12.6496 21.8566 
15230 0 5 17.6011 16.0858 22.9156 
17453 0 5 19.7606 16.7473 23.6049 
7622 0 5 19.5445 15.9454 26.9803 
604 0 5 21.0518 12.1392 28.8194 
10805 0 5 18.6171 13.7217 32.673 
16038 0 5 20.6869 21.2066 6.66066 
13662 0 5 17.3553 20.3939 8.66357 
26063 0 5 21.1248 19.3169 8.74786 
16616 0 5 19.6317 20.9031 9.95306 
15403 0 5 18.3506 18.8361 17.2504 
3778 0 5 21.8825 20.7933 18.2372 
8939 0 5 19.6986 21.1048 19.8005 
6281 0 5 18.4465 20.8707 21.7664 
23446 0 5 17.2828 18.473 24.9673 
6814 0 5 20.8419 22.0151 27.2158 
15873 0 5 17.1517 17.9231 32.5518 
23965 0 5 20.187 26.8587 4.21223 
18211 0 5 19.3392 26.5179 5.23896 
15575 0 5 19.7257 23.0966 7.09105 
16148 0 5 21.451 22.8524 11.1454 
16719 0 5 19.4518 24.2049 10.3876 
4432 0 5 21.065 25.2456 11.0365 
11893 0 5 18.7041 27.0169 10.7496 
9243 0 5 19.1871 27.5538 9.73573 
4446 0 5 18.2003 23.9409 13.176 
24418 0 5 21.8351 24.7965 14.6118 
20296 0 5 20.2358 23.3095 16.1573 
9050 0 5 17.4436 23.6023 20.1384 
24666 0 5 18.8342 27.4535 19.26 
26060 0 5 17.6286 22.7248 27.1396 
23232 0 5 21.305 28.8256 2.57887 
24478 0 5 19.667 32.4359 7.43269 
12125 0 5 21.2016 32.0381 7.30772 
6356 0 5 21.2462 29.0242 12.6675 
25409 0 5 21.8313 29.2077 15.3073 
11956 0 5 17.9979 30.7286 17.3332 
17199 0 5 20.8388 30.2761 16.9442 
4625 0 5 16.9268 27.7384 22.9976 
9290 0 5 18.8032 28.3143 23.8467 
20318 0 5 20.6268 29.1134 23.3185 
13640 0 5 17.0197 28.395 26.221 
22613 0 5 18.5003 31.4639 27.1524 
575 0 5 17.9412 31.6514 31.4443 
6698 0 5 26.9751 2.614 11.641 
18116 0 5 23.7678 1.12903 17.3927 
23380 0 5 22.4302 4.59022 17.5473 
23995 0 5 24.8982 3.79259 19.6321 
18233 0 5 22.3717 5.77855 19.2308 
6429 0 5 24.3221 1.72515 23.3008 
3611 0 5 23.0974 1.90753 28.7676 
15013 0 5 26.9474 7.72757 1.08402 
24579 0 5 25.4339 7.34061 5.50415 
22809 0 5 24.5933 9.18039 5.85115 
23789 0 5 23.1486 9.31412 7.1472 
5785 0 5 23.5765 11.0409 8.0503 
14382 0 5 23.2663 7.6558 12.3033 
22051 0 5 23.4868 9.05929 18.0497 
6358 0 5 23.8291 10.095 17.6004 
7013 0 5 27.5781 10.6396 19.2041 
18474 0 5 23.0884 6.82532 20.9692 
20317 0 5 27.1798 11.2815 28.3756 
13452 0 5 27.177 9.06904 30.6886 
18111 0 5 25.9701 8.86041 29.8335 
4028 0 5 23.4068 6.34628 32.0147 
10274 0 5 24.3102 6.46642 31.2835 
6077 0 5 27.4926 6.23941 31.9595 
18741 0 5 25.6543 15.9291 4.71936 
10540 0 5 26.6463 11.9116 6.83302 
19263 0 5 26.468 14.0824 9.18204 
13185 0 5 25.9575 12.5738 10.4644 
24314 0 5 22.438 15.2032 11.8722 
17346 0 5 23.8687 12.715 15.2509 
32 0 5 26.1769 13.5542 15.3953 
11622 0 5 22.4086 12.3228 17.6618 
24665 0 5 23.0021 13.3936 19.7359 
3093 0 5 25.8807 13.1607 21.1412 
18469 0 5 27.224 12.734 22.5658 
24335 0 5 24.4354 15.1571 23.7661 
14514 0 5 22.3777 13.998 25.9928 
16695 0 5 23.7384 15.9351 26.1977 
20728 0 5 22.6308 18.5843 5.06191 
6993 0 5 26.1307 18.1587 12.2806 
8881 0 5 24.3267 17.0931 21.6479 
975 0 5 26.6811 20.13 21.8932 
24363 0 5 25.1501 17.8633 22.4294 
20169 0 5 22.5316 17.8104 25.5614 
12439 0 5 25.4049 22.1398 24.5243 
5742 0 5 23.3988 18.0302 26.2223 
16693 0 5 26.369 17.945 26.8114 
25788 0 5 23.9044 24.5133 0.80872 
16599 0 5 27.1035 27.3598 1.41037 
15539 0 5 26.5077 23.8894 4.03524 
12008 0 5 23.8574 26.5959 6.81312 
9328 0 5 23.7135 23.3982 9.58127 
18983 0 5 25.4216 24.5735 9.58968 
23003 0 5 26.3959 25.7574 8.87238 
14037 0 5 22.6629 27.4839 9.74125 
20269 0 5 27.6195 26.5937 12.3931 
22322 0 5 27.3051 24.7943 13.4598 
534 0 5 26.3294 24.0356 15.4794 
25957 0 5 23.7495 24.8018 15.3307 
14398 0 5 23.6662 25.6405 19.4316 
1785 0 5 22.7532 26.3854 19.9047 
16748 0 5 23.3959 22.3525 22.0135 
6565 0 5 26.831 24.9478 27.2761 
8773 0 5 27.6316 24.9729 26.1717 
1164 0 5 25.5092 25.6381 27.8517 
19401 0 5 26.0098 23.5131 29.7426 
24198 0 5 26.385 24.6164 29.779 
21668 0 5 26.1708 24.4783 31.3559 
18999 0 5 24.3484 28.8838 1.01238 
18595 0 5 24.5694 27.7454 2.71402 
11084 0 5 26.4989 29.6967 4.47913 
21982 0 5 27.3127 31.236 7.83274 
5948 0 5 22.3466 31.9457 9.7024 
4420 0 5 25.8618 30.4299 10.8143 
17629 0 5 23.5015 31.8623 9.72485 
2154 0 5 23.2608 29.6368 13.4366 
19084 0 5 25.9888 29.9527 18.4641 
11862 0 5 23.3918 28.4747 20.1508 
23338 0 5 23.9756 29.8898 18.6934 
20447 0 5 26.8027 31.5073 20.3822 
5510 0 5 26.9781 32.6407 20.3674 
2935 0 5 25.8489 28.8427 28.0885 
24492 0 5 24.1465 28.6017 28.3273 
6184 0 5 26.5615 30.6928 30.5381 
19021 0 5 26.3491 29.0777 31.7712 
11484 0 5 22.9733 30.3519 32.1866 
23763 0 5 32.7916 4.48081 1.09936 
11781 0 5 28.4128 2.48233 2.88178 
11878 0 5 30.7422 4.17232 3.12413 
25277 0 5 29.9713 2.19665 6.10202 
12506 0 5 32.3181 1.13465 7.02796 
7582 0 5 29.1556 4.96662 7.65467 
26096 0 5 32.147 4.7768 6.15366 
15139 0 5 27.6835 1.55166 8.04166 
4532 0 5 30.1409 2.39093 10.1828 
9202 0 5 32.346 2.61133 10.0694 
16469 0 5 31.8465 3.03665 16.4208 
19974 0 5 28.6612 0.881185 18.4999 
10968 0 5 31.1448 1.94466 19.4106 
12950 0 5 31.2771 2.99451 19.2823 
15083 0 5 28.8477 3.23891 20.8871 
3418 0 5 30.4622 3.52905 22.7914 
3661 0 5 29.687 5.09254 23.4744 
23189 0 5 31.2827 3.51204 26.8351 
5544 0 5 27.789 6.10256 26.2425 
22522 0 5 31.218 3.52666 29.7583 
18427 0 5 28.2957 8.24208 2.03058 
23769 0 5 29.1542 8.92691 3.418 
11602 0 5 32.0019 11.2549 3.78597 
9162 0 5 28.274 8.059 7.84711 
1462 0 5 28.2334 6.65069 8.40191 
13137 0 5 29.5829 6.79581 8.29159 
12568 0 5 31.2048 9.1888 9.11292 
7807 0 5 28.5622 11.0584 9.01338 
3530 0 5 31.2462 9.63051 11.8479 
2294 0 5 31.3416 7.69566 15.6349 
10487 0 5 30.0465 8.1112 16.3905 
2790 0 5 28.3351 7.38424 18.3778 
1586 0 5 29.4287 7.38772 18.5489 
826 0 5 27.6972 10.6021 18.165 
6460 0 5 32.0444 11.1694 17.0593 
17247 0 5 30.5537 9.37103 22.7471 
18024 0 5 29.8658 6.14716 24.1484 
18053 0 5 27.8976 8.53108 24.4536 
1501 0 5 28.9346 7.13218 28.4757 
8383 0 5 29.3206 11.1257 30.5005 
15495 0 5 32.9231 12.3286 5.83465 
23025 0 5 29.2307 16.8879 4.77206 
10698 0 5 28.8382 13.9394 6.26928 
16745 0 5 33.0557 16.4814 11.928 
8307 0 5 32.4298 12.1382 14.6234 
3930 0 5 31.9401 13.9838 14.6815 
19963 0 5 32.0604 12.6912 18.6395 
8139 0 5 30.5883 13.3432 26.5118 
14451 0 5 29.9534 13.5581 32.4162 
8925 0 5 28.2764 19.1488 5.17957 
26540 0 5 30.759 17.3763 11.2078 
11240 0 5 28.528 19.0709 10.6247 
333 0 5 29.6113 18.8212 11.4304 
16548 0 5 31.7829 20.6374 14.5426 
26698 0 5 28.4492 19.7995 23.5393 
23964 0 5 32.5397 18.3901 27.588 
17480 0 5 29.9903 21.8615 31.7431 
3443 0 5 33.0745 20.9411 33.0131 
20476 0 5 31.2182 22.8292 3.60552 
8720 0 5 29.7289 27.6591 2.5974 
15719 0 5 27.9685 27.4192 13.0801 
17380 0 5 32.3634 22.3352 27.2839 
25908 0 5 32.6799 25.1062 26.3826 
9691 0 5 32.5639 26.0194 32.7562 
4785 0 5 27.7471 30.695 1.01083 
1613 0 5 27.7381 29.5145 4.15232 
4667 0 5 29.6933 32.3696 5.15931 
14163 0 5 31.5125 29.8218 9.50514 
22467 0 5 27.8601 31.3955 8.84097 
12939 0 5 32.038 29.1624 12.8797 
5550 0 5 29.3964 31.3707 18.3049 
23989 0 5 28.6707 29.3544 25.9058 
11722 0 5 32.1577 28.3165 28.6309 
877 0 5 31.4745 28.1185 31.2573 
23948 0 5 30.5063 29.4554 32.1133 
25408 0 5 32.5969 30.8068 31.8378 
ITEM: TIMESTEP
7050000
ITEM: NUMBER OF ATOMS
475
ITEM: BOX BOUNDS pp pp pp
7.1354277009520928e-01 3.3076457229894366e+01
7.1354277009520928e-01 3.3076457229894366e+01
7.1354277009520928e-01 3.3076457229894366e+01
ITEM: ATOMS id mol type x y z 
17713 0 5 0.900221 2.9343 10.9591 
5281 0 5 2.36762 4.48525 15.1004 
2581 0 5 4.06981 4.88543 23.4254 
9021 0 5 3.38142 5.67885 23.4026 
23189 0 5 1.84632 4.72459 25.5854 
17247 0 5 1.47935 4.73518 28.846 
24373 0 5 5.17834 3.70245 30.0752 
5555 0 5 4.30664 1.7522 29.776 
5227 0 5 2.97677 4.55548 29.881 
23763 0 5 3.10123 5.83367 28.3132 
15579 0 5 5.55696 2.35244 31.2423 
15013 0 5 0.792163 3.94121 28.6458 
24809 0 5 2.0107 6.55745 6.18095 
15314 0 5 5.27849 10.3147 7.70711 
10487 0 5 1.91508 9.19535 10.0181 
1380 0 5 4.10347 10.0536 13.2571 
23769 0 5 2.84212 6.85847 15.3279 
6460 0 5 0.978835 9.63256 15.3031 
11787 0 5 2.49383 8.68951 16.2854 
17502 0 5 3.59934 11.3895 23.3833 
7968 0 5 4.69789 7.9579 24.9267 
14107 0 5 4.17636 11.0924 25.9458 
20578 0 5 5.92277 8.3042 25.5415 
14374 0 5 5.47911 9.14363 29.9347 
15662 0 5 4.23035 13.0208 4.06181 
22809 0 5 1.51306 12.8295 10.5763 
10698 0 5 5.43387 12.9948 9.50699 
3492 0 5 3.41799 15.4263 9.34457 
15007 0 5 5.99273 15.4698 8.14037 
20044 0 5 4.84615 16.458 12.3385 
7807 0 5 6.00711 15.3263 12.2474 
18111 0 5 4.14672 13.6842 23.2438 
14514 0 5 3.40462 12.8326 26.1028 
11115 0 5 5.92987 19.552 1.56415 
20476 0 5 1.42554 18.2845 2.71231 
1002 0 5 4.02797 19.757 2.90419 
2776 0 5 3.49699 20.4676 4.48348 
16930 0 5 1.22519 21.0838 6.43706 
19382 0 5 4.08319 20.8613 12.3199 
15647 0 5 3.98943 19.726 14.3929 
15953 0 5 2.3826 19.2565 15.6751 
24418 0 5 1.40652 22.1301 19.4311 
23191 0 5 5.35961 18.9695 19.465 
16281 0 5 0.800119 20.9071 17.7789 
8142 0 5 3.20959 17.1425 27.1796 
5334 0 5 3.46694 21.4927 23.7641 
17380 0 5 3.081 20.6002 26.3148 
14409 0 5 2.44191 19.9236 27.1593 
25908 0 5 2.1561 21.6118 22.5288 
19340 0 5 3.58868 19.3543 28.2127 
10477 0 5 1.52365 21.5171 27.7884 
2494 0 5 3.86884 19.4047 31.1573 
3443 0 5 0.981276 22.6975 1.86229 
18595 0 5 2.56019 25.422 5.155 
23948 0 5 1.48785 26.8116 4.6969 
26058 0 5 4.33601 22.9652 12.825 
11192 0 5 3.12415 25.8352 13.1431 
10895 0 5 5.99421 25.9716 16.7441 
291 0 5 2.52812 24.677 22.6879 
589 0 5 1.16923 24.9472 23.3134 
21940 0 5 3.59238 25.6699 22.3716 
22322 0 5 2.15786 23.5525 23.4127 
12090 0 5 3.94426 25.9206 25.9969 
7153 0 5 5.64421 26.9146 22.5154 
23159 0 5 3.40713 24.13 28.5818 
24345 0 5 1.73529 25.4519 31.8836 
877 0 5 4.56649 29.2719 2.49574 
15723 0 5 3.36571 29.0731 5.51586 
9744 0 5 4.62703 31.7928 7.06716 
21133 0 5 1.27531 30.8415 9.35816 
10234 0 5 4.45194 31.7276 8.30576 
9128 0 5 2.94752 32.1952 9.44204 
22467 0 5 2.4696 29.6085 12.4979 
1282 0 5 2.67205 28.8739 13.6166 
13568 0 5 0.81148 30.5618 12.8539 
2243 0 5 2.00885 32.3965 13.3165 
12950 0 5 1.20788 28.066 20.6488 
14163 0 5 1.04355 28.2135 18.0686 
6655 0 5 5.56683 31.1166 21.7898 
15310 0 5 2.36943 31.1668 25.1303 
21648 0 5 3.74049 29.6618 27.9987 
15765 0 5 9.33003 1.79138 1.13956 
19335 0 5 7.23449 1.42341 3.98469 
13674 0 5 9.76043 5.83023 2.0773 
8928 0 5 10.3125 0.806597 11.2451 
16081 0 5 10.2129 5.22824 7.90077 
19928 0 5 8.91426 4.27035 12.0112 
10968 0 5 6.41952 0.978397 15.2271 
9408 0 5 11.1453 4.44728 20.8837 
16206 0 5 11.1613 3.65927 17.0832 
13546 0 5 7.29163 4.29442 22.9672 
19578 0 5 9.01416 1.45075 28.4065 
14455 0 5 10.1653 2.28029 31.5996 
2232 0 5 8.68172 6.92839 3.86111 
16347 0 5 11.205 8.47156 2.18365 
13129 0 5 9.71803 8.8201 4.82394 
1168 0 5 6.97328 10.2636 6.01901 
13321 0 5 9.68781 8.0589 6.88912 
25043 0 5 8.10026 6.3671 13.6274 
20281 0 5 8.64341 8.51951 19.1647 
24313 0 5 8.7075 8.16352 20.5889 
13854 0 5 11.3342 8.76319 26.9658 
3418 0 5 7.042 9.00625 28.9879 
2833 0 5 6.42218 14.9553 2.60707 
6368 0 5 10.435 16.6785 3.74034 
19062 0 5 6.76326 16.2552 9.5206 
20455 0 5 8.89572 14.9162 6.14057 
12383 0 5 8.66736 11.9929 14.3435 
22209 0 5 8.99297 12.5801 15.8731 
6459 0 5 6.94559 15.9644 16.7354 
652 0 5 11.2742 16.2677 19.7038 
14516 0 5 7.02876 15.9437 24.3882 
17453 0 5 8.85175 15.2306 28.9262 
18664 0 5 7.63687 12.2236 31.7925 
23964 0 5 6.99074 12.7878 30.1313 
10795 0 5 9.49312 15.5142 31.2767 
14585 0 5 7.74615 16.4338 31.5303 
7797 0 5 7.43346 14.8784 31.4026 
25834 0 5 9.90745 18.8799 3.34924 
18983 0 5 10.7742 22.1409 1.78477 
15445 0 5 9.5858 21.6096 1.95606 
10844 0 5 10.0868 17.5113 3.1841 
3613 0 5 7.9107 21.4856 5.2942 
5559 0 5 11.2346 19.9053 10.3212 
14793 0 5 6.6286 19.6234 6.96031 
9887 0 5 8.02956 17.5575 10.6785 
26737 0 5 8.42511 19.6334 8.111 
7211 0 5 6.3125 17.0994 10.907 
9878 0 5 9.78151 21.5636 6.54523 
2159 0 5 6.45193 17.0171 6.52032 
16745 0 5 6.64042 18.0683 12.6456 
9520 0 5 8.05812 17.3369 15.8175 
6370 0 5 9.36449 21.6269 21.74 
376 0 5 6.44081 20.552 21.6984 
10266 0 5 10.025 20.5733 21.1696 
12161 0 5 6.59019 19.1881 19.1456 
24363 0 5 11.0517 19.5221 30.8672 
15226 0 5 8.52006 24.9478 4.78404 
21438 0 5 6.26803 23.5066 5.32069 
14393 0 5 6.99776 22.6584 7.75658 
23938 0 5 10.2837 25.0203 7.84665 
5507 0 5 8.60401 24.7018 13.9841 
4911 0 5 10.1261 26.0999 14.7972 
13469 0 5 9.44975 25.9967 16.491 
9697 0 5 10.1312 26.5011 13.6136 
23773 0 5 8.34491 26.0212 18.1748 
7170 0 5 9.52004 22.4823 19.8566 
13302 0 5 6.20738 23.2136 18.4584 
23170 0 5 8.61974 22.3649 21.9906 
17248 0 5 7.74226 24.9665 27.5876 
23620 0 5 9.1328 27.4075 32.355 
16272 0 5 8.19137 24.425 31.9658 
8422 0 5 6.19077 25.4355 31.8029 
20717 0 5 6.20131 31.0555 11.4229 
26096 0 5 9.23076 31.8497 13.6776 
16385 0 5 8.36473 28.9098 23.4228 
13263 0 5 7.89629 30.7952 22.6644 
17473 0 5 9.22613 31.3244 32.4262 
11294 0 5 6.18705 27.8755 31.5181 
23674 0 5 13.9695 4.73385 0.710974 
5734 0 5 15.4924 1.12648 9.53509 
10057 0 5 14.6808 4.38714 9.59883 
20801 0 5 12.3599 5.53702 10.4794 
23396 0 5 13.3531 2.78811 13.0072 
14566 0 5 12.5539 2.51133 15.6134 
10303 0 5 14.843 0.860355 12.5791 
22503 0 5 15.3987 5.8278 19.6163 
20765 0 5 16.6628 5.14829 20.1976 
27000 0 5 12.9317 2.57077 21.9575 
2414 0 5 12.5977 3.15342 23.5662 
3614 0 5 15.7215 4.95198 25.0756 
15655 0 5 16.7332 1.09519 30.3324 
4686 0 5 16.6322 5.37611 32.4409 
24977 0 5 15.1296 10.9552 4.7603 
1828 0 5 12.5689 10.3163 15.4054 
13964 0 5 11.6155 10.6013 13.4028 
6682 0 5 16.3044 7.9274 18.8157 
16387 0 5 13.4079 9.91046 18.4521 
17384 0 5 12.1509 6.10395 22.9261 
2304 0 5 15.7052 14.1742 5.02779 
16038 0 5 13.1387 13.0058 10.0167 
13196 0 5 15.5188 16.5933 10.9557 
13558 0 5 13.9942 16.5102 12.2549 
15403 0 5 15.9076 16.633 12.1386 
5241 0 5 11.9196 15.4273 15.3295 
22212 0 5 11.87 15.6586 16.8462 
3778 0 5 16.8281 14.0746 14.5072 
8939 0 5 16.6368 16.7102 16.5427 
21620 0 5 15.5335 14.025 16.1067 
353 0 5 11.5433 14.4872 12.7128 
10488 0 5 13.8555 15.9047 20.154 
15230 0 5 12.5866 13.4092 21.4778 
23446 0 5 15.9723 15.1922 24.8428 
14382 0 5 15.0035 14.5262 23.0595 
19291 0 5 14.7509 16.0014 26.6735 
21981 0 5 16.228 15.5755 27.2101 
24589 0 5 14.1305 13.339 30.5198 
12139 0 5 12.5807 21.9556 3.17836 
21070 0 5 15.2067 18.181 5.29091 
13277 0 5 14.7791 19.7758 13.1993 
14397 0 5 16.8824 17.7886 15.0846 
25268 0 5 13.3932 18.1422 13.4289 
18380 0 5 13.5891 19.2641 13.59 
3729 0 5 15.1034 21.2251 13.6705 
14795 0 5 15.1574 17.1931 21.0618 
23722 0 5 15.4153 21.8597 24.9647 
24297 0 5 13.7559 18.0826 22.435 
3275 0 5 12.4332 18.3939 27.3575 
16776 0 5 13.1779 21.8127 29.164 
7622 0 5 15.2162 21.658 31.7618 
14579 0 5 14.652 21.5371 30.7823 
16074 0 5 14.4424 24.2742 3.49261 
22496 0 5 11.7786 25.6609 1.01275 
21602 0 5 16.2484 24.0607 2.28757 
6427 0 5 16.0692 25.1563 4.263 
19973 0 5 14.8808 22.7654 11.1517 
13662 0 5 13.8011 25.7331 10.5103 
11521 0 5 14.377 26.4458 12.7736 
9050 0 5 14.3826 23.3323 16.5244 
4439 0 5 13.5176 25.9597 13.7427 
22911 0 5 14.2794 27.1407 15.0253 
11968 0 5 13.5034 26.3374 15.4371 
14638 0 5 11.5327 24.4699 12.3398 
4625 0 5 14.9935 25.9135 17.6623 
21369 0 5 12.4605 25.5059 18.6397 
24969 0 5 13.103 24.4172 23.1697 
19574 0 5 13.0626 23.9865 27.5033 
18247 0 5 14.0269 27.5208 27.2584 
26060 0 5 16.3026 27.2954 23.6688 
23989 0 5 15.618 23.3168 31.278 
9713 0 5 12.3796 25.2566 32.3269 
10492 0 5 16.358 30.9099 7.80282 
16719 0 5 16.0565 30.1577 7.15761 
1788 0 5 16.0932 31.6573 13.0071 
18001 0 5 13.5192 32.4222 14.5868 
13288 0 5 12.4505 29.143 16.909 
18101 0 5 13.7906 30.0748 20.8265 
22613 0 5 15.5321 28.7841 25.2556 
18240 0 5 18.8065 3.87155 2.20554 
2799 0 5 18.2368 1.93983 2.64905 
2831 0 5 21.4489 1.86383 1.63173 
4785 0 5 19.298 4.61337 2.67636 
24579 0 5 17.4317 5.78237 8.48666 
21446 0 5 19.362 3.64025 6.80728 
19084 0 5 19.4726 4.76954 16.8756 
11956 0 5 22.0364 4.9248 15.5944 
6358 0 5 21.5979 3.57626 17.8153 
1586 0 5 18.6987 1.25262 24.0039 
1613 0 5 19.6794 1.25163 31.0726 
15963 0 5 20.5471 1.05346 29.4205 
10805 0 5 22.2072 7.68536 3.44655 
16009 0 5 17.023 11.2115 3.69646 
9298 0 5 20.3699 7.43338 12.6608 
23789 0 5 22.0913 8.59756 12.542 
3087 0 5 19.3242 6.6327 18.6603 
16595 0 5 19.167 9.84001 25.3516 
6678 0 5 21.0954 10.8716 30.7187 
9162 0 5 19.6976 8.94303 31.9253 
19255 0 5 17.0977 13.5555 7.90937 
24311 0 5 18.7269 14.3816 11.4584 
21091 0 5 17.6969 15.2131 8.72191 
19963 0 5 21.5347 14.9174 9.57265 
10274 0 5 21.3621 13.253 11.1609 
1523 0 5 20.1893 14.1058 9.35807 
24314 0 5 20.6351 13.3702 13.4366 
16616 0 5 17.2935 13.9095 15.4287 
5742 0 5 17.8524 15.7909 25.4138 
18469 0 5 22.151 16.7613 22.3137 
4649 0 5 21.3803 14.1589 22.866 
15873 0 5 17.1649 12.7446 25.95 
9757 0 5 18.2389 13.4131 29.903 
20242 0 5 17.9201 13.011 28.6987 
2923 0 5 17.0591 12.4363 32.2917 
5875 0 5 19.5492 19.4752 3.08133 
4446 0 5 17.9507 19.7318 6.25738 
26063 0 5 21.9079 20.4208 9.3966 
32 0 5 22.2232 16.9334 11.4857 
5002 0 5 20.1619 17.067 12.8652 
3187 0 5 19.0101 21.6605 19.8971 
9396 0 5 22.0208 18.662 20.358 
24665 0 5 21.4216 19.329 24.0901 
6814 0 5 20.9406 18.6861 24.7051 
3274 0 5 21.5873 17.0616 25.5752 
1164 0 5 19.4763 17.4877 31.0323 
12439 0 5 17.1331 21.9561 27.9985 
9838 0 5 19.6503 20.8999 27.9589 
25788 0 5 18.3152 23.775 1.12367 
18211 0 5 22.0895 24.458 5.50508 
11484 0 5 21.6168 24.5771 4.08045 
15575 0 5 19.6562 25.5408 3.56419 
17362 0 5 16.9992 23.4547 15.6099 
24563 0 5 21.5457 25.234 14.5208 
17629 0 5 20.5801 24.9086 13.9192 
24666 0 5 18.359 24.4357 16.1359 
6281 0 5 20.2306 23.2625 22.187 
24307 0 5 19.9578 23.6185 24.0248 
23972 0 5 20.5491 27.6351 26.0782 
19858 0 5 18.6402 23.8142 28.8545 
18547 0 5 17.405 27.1946 28.5698 
12008 0 5 16.9142 23.7715 29.1599 
23965 0 5 17.8487 29.251 3.42286 
23930 0 5 18.3375 32.4958 5.12035 
9328 0 5 18.5043 30.4131 3.98918 
6566 0 5 20.6475 31.8525 4.97442 
16599 0 5 17.7598 31.538 6.74235 
14037 0 5 19.3449 27.9673 9.18691 
9243 0 5 20.5298 27.7896 9.94391 
24591 0 5 19.4554 30.1468 11.1719 
9723 0 5 16.9952 31.047 12.7987 
4792 0 5 21.8409 29.8215 11.6 
18116 0 5 20.0855 32.1704 18.8746 
20751 0 5 18.0252 30.8746 25.6303 
12125 0 5 23.5369 5.5617 5.958 
3938 0 5 26.3432 5.46067 9.74709 
1462 0 5 24.6931 5.56016 9.73065 
5550 0 5 24.7993 4.99475 19.2359 
23995 0 5 27.0162 1.39778 19.4032 
9290 0 5 25.2506 1.15665 21.132 
17199 0 5 24.3655 4.24227 21.4817 
25409 0 5 27.1443 2.91523 22.7037 
18053 0 5 25.75 4.84446 23.9757 
575 0 5 23.176 0.721347 30.1505 
22213 0 5 27.0856 7.52651 2.43651 
604 0 5 23.5236 6.58258 4.42251 
24999 0 5 25.727 7.85787 2.7475 
11781 0 5 22.8127 7.84901 9.35275 
11878 0 5 26.3145 7.36388 12.3635 
7018 0 5 23.7048 6.60175 16.2595 
7582 0 5 27.2562 7.27618 14.2991 
11622 0 5 26.1521 8.89614 14.5574 
11602 0 5 25.0206 6.13237 11.8231 
13452 0 5 26.5984 9.27698 26.4135 
8383 0 5 27.0019 7.26487 30.5841 
16695 0 5 26.9524 10.9545 31.5278 
19263 0 5 24.1526 12.1895 10.8256 
10811 0 5 26.6618 13.4764 15.0243 
17346 0 5 24.6502 15.3046 17.4116 
9087 0 5 27.1054 13.0417 17.9838 
24335 0 5 23.3164 16.5108 17.3824 
24434 0 5 22.9289 16.0141 22.8469 
7013 0 5 25.2248 14.4596 27.5541 
17643 0 5 24.6288 14.7921 30.5616 
18741 0 5 25.3917 13.8376 32.2739 
10540 0 5 27.3411 20.0239 10.6578 
4432 0 5 24.0942 21.1632 9.57112 
6993 0 5 24.6572 18.4413 11.0922 
11240 0 5 26.7247 18.4295 11.7104 
20269 0 5 25.7673 20.081 16.2016 
24506 0 5 25.2866 20.9423 18.0854 
6022 0 5 23.2448 17.57 17.8471 
16748 0 5 24.9771 20.8907 19.4332 
26698 0 5 26.0292 19.5686 18.3978 
8881 0 5 25.0261 18.9489 20.6575 
3930 0 5 23.7016 18.5815 25.2731 
16693 0 5 22.3918 17.5379 27.5083 
23232 0 5 22.3444 25.1788 4.76501 
23003 0 5 23.9339 24.4325 3.24796 
16148 0 5 25.7652 22.3263 7.35863 
15719 0 5 23.9814 24.4678 8.09145 
11084 0 5 26.2166 24.3608 12.7774 
6698 0 5 23.7256 27.4534 15.8284 
6795 0 5 25.0386 25.377 18.3841 
22808 0 5 22.3396 22.8562 20.2796 
25341 0 5 23.9281 22.68 29.3898 
19401 0 5 24.5763 24.1684 29.5482 
6184 0 5 25.5304 31.928 4.8738 
18427 0 5 24.6028 31.6346 1.52284 
3661 0 5 26.712 30.9096 2.70406 
8467 0 5 26.356 30.0916 6.6826 
21982 0 5 26.1199 28.7972 9.19456 
18233 0 5 22.7386 31.7482 14.4122 
24573 0 5 23.0114 31.9159 13.2014 
23380 0 5 26.1454 31.9293 14.8151 
5948 0 5 27.3084 30.1975 13.7964 
5510 0 5 26.9815 27.9712 14.1395 
22893 0 5 24.6159 30.3721 19.5552 
11862 0 5 24.0708 29.8451 17.3348 
13640 0 5 25.9017 30.3586 23.288 
14478 0 5 27.0029 32.0557 23.942 
8773 0 5 22.5308 29.0523 28.8845 
24492 0 5 25.4875 31.3451 31.4091 
6077 0 5 25.4149 29.5791 32.834 
12506 0 5 30.3863 1.37081 5.72713 
22522 0 5 32.9773 0.765703 1.83555 