ITEM: TIMESTEP
0
ITEM: NUMBER OF ATOMS
475
ITEM: BOX BOUNDS pp pp pp
7.1354277009520928e-01 3.3076457229894366e+01
7.1354277009520928e-01 3.3076457229894366e+01
7.1354277009520928e-01 3.3076457229894366e+01
ITEM: ATOMS id mol type x y z 
27008 301 4 0.894868 15.1175 4.17207 
27204 311 4 0.909206 15.1097 4.16019 
27206 311 4 1.67282 13.9708 5.61631 
27205 311 4 1.53865 14.606 4.80983 
27019 301 4 1.53202 14.6132 4.81357 
27018 301 4 1.67584 13.9728 5.61433 
27207 311 4 1.27575 13.3743 6.36353 
27017 301 4 1.2878 13.3682 6.35976 
27321 317 4 5.95818 15.5326 9.42172 
27320 317 4 5.97038 16.1915 8.62327 
27395 321 4 0.760608 20.3758 21.9937 
27160 309 4 0.771707 20.4018 22.0288 
27396 321 4 0.869189 21.0514 21.2168 
27161 309 4 0.877908 21.0751 21.2495 
27148 308 4 1.81172 23.2546 10.0596 
27147 308 4 0.918149 23.4081 10.5594 
27138 308 4 1.58125 23.9903 11.0299 
27149 308 4 2.82122 23.4542 9.94581 
27139 308 4 2.53278 24.0134 10.7231 
27150 308 4 3.67614 23.9536 10.2486 
27134 308 4 2.24435 24.5726 11.5004 
27140 308 4 3.19588 24.5957 11.1936 
27151 308 4 4.14742 24.6187 10.8868 
27137 308 4 1.29282 24.5495 11.8072 
27144 308 4 0.812559 25.1916 12.7523 
27136 308 4 1.95592 25.1317 12.2778 
27143 308 4 1.66748 25.6909 13.0551 
27152 308 4 4.10877 25.2715 11.6895 
27135 308 4 2.90745 25.1548 11.9709 
27141 308 4 3.57055 25.7371 12.4414 
27142 308 4 2.67698 25.8906 12.9413 
27359 319 4 6.09116 30.9334 4.50695 
27402 322 4 5.86196 31.3521 5.62829 
27409 322 4 5.52822 31.7449 4.7713 
27349 319 4 5.84533 31.3542 5.64647 
27410 322 4 5.12434 32.3416 5.51474 
27361 319 4 5.10353 32.3401 5.52966 
27360 319 4 5.50658 31.7402 4.78838 
27344 319 4 5.58705 31.7703 6.51837 
27403 322 4 5.60163 31.7636 6.50176 
27411 322 4 5.00754 32.5679 6.51824 
27350 319 4 4.99002 32.5724 6.53217 
27345 319 4 5.92579 31.3843 7.37646 
27404 322 4 5.93537 31.3709 7.35876 
27351 319 4 5.19645 32.3749 7.52728 
27412 322 4 5.20911 32.3633 7.51291 
27352 319 4 5.66751 31.8004 8.24836 
27413 322 4 5.67503 31.7824 8.23223 
27464 325 4 9.65866 1.14082 3.19892 
27048 303 4 9.64975 1.15586 3.19988 
27049 303 4 9.11674 1.32626 4.07093 
27465 325 4 9.12916 1.32105 4.07015 
27466 325 4 8.65525 0.968647 4.92051 
27050 303 4 8.6474 0.96499 4.9201 
27069 304 4 10.9748 11.0477 23.5029 
27070 304 4 10.9409 10.0488 23.773 
27072 304 4 9.9513 8.98912 25.1507 
27071 304 4 10.5663 9.29533 24.3761 
27063 304 4 9.46506 10.0884 25.4525 
27058 304 4 9.66933 10.9646 25.0159 
27064 304 4 9.0166 10.9231 25.7724 
27062 304 4 10.1178 10.13 24.696 
27061 304 4 10.3221 11.0062 24.2594 
27073 304 4 9.26079 9.21225 25.8891 
27074 304 4 8.67975 9.90492 26.3936 
27075 304 4 8.36387 10.8815 26.5289 
27314 317 4 7.98587 12.9807 7.3467 
27316 317 4 7.73698 14.5522 6.13476 
27308 317 4 7.35755 14.5691 7.05987 
27307 317 4 7.482 13.7834 7.66584 
27315 317 4 7.99807 13.6396 6.54825 
27319 317 4 6.2526 16.4203 7.65378 
27317 317 4 7.27255 15.4738 6.21705 
27318 317 4 6.72923 16.1576 6.77305 
27309 317 4 6.85368 15.3718 7.37901 
27313 317 4 7.70365 12.7519 8.31618 
27312 317 4 7.22702 13.0146 9.19692 
27306 317 4 7.10257 13.8003 8.59095 
27311 317 4 6.5987 14.6031 8.91009 
27305 317 4 6.97813 14.5861 7.98498 
27310 317 4 6.47425 15.3888 8.30412 
27323 317 4 6.6837 13.6984 9.75292 
27322 317 4 6.21927 14.62 9.8352 
27068 304 4 10.6589 12.0243 23.6382 
27059 304 4 9.22087 11.7993 25.3357 
27066 304 4 9.38736 12.9401 24.881 
27065 304 4 8.77241 12.6339 25.6556 
27060 304 4 9.8736 11.8408 24.5792 
27067 304 4 10.0779 12.717 24.1426 
27076 304 4 8.39778 11.8804 26.2588 
27057 303 4 10.3413 30.8781 2.45864 
27473 325 4 10.3092 30.8514 2.46234 
27046 303 4 10.3567 31.8958 2.26902 
27474 325 4 10.34 31.8684 2.27065 
27462 325 4 9.67723 30.8785 3.5281 
27055 303 4 9.59204 29.7207 3.90756 
27471 325 4 9.54397 29.7084 3.91432 
27045 303 4 9.70788 30.8935 3.52382 
27056 303 4 10.0614 30.082 3.05839 
27472 325 4 10.0179 30.0608 3.06397 
27457 325 4 9.33657 31.6962 3.99224 
27039 303 4 9.35439 31.7049 3.98925 
27458 325 4 9.49761 32.6 3.59558 
27041 303 4 9.50207 32.6119 3.59456 
27463 325 4 9.83827 31.7823 3.13144 
27040 303 4 9.85557 31.8004 3.12913 
27047 303 4 10.1036 32.8624 2.54033 
27475 325 4 10.1018 32.8392 2.54026 
27357 319 4 7.1717 29.5614 5.48185 
27418 322 4 7.1823 29.5554 5.45766 
27407 322 4 6.71638 30.1363 4.73834 
27358 319 4 6.70064 30.1359 4.76077 
27401 322 4 6.45604 30.5478 5.61181 
27348 319 4 6.44236 30.552 5.63267 
27408 322 4 6.11094 30.9377 4.48712 
27053 303 4 8.60515 30.5475 5.43816 
27054 303 4 9.05902 29.8911 4.77861 
27044 303 4 9.20671 30.798 4.38393 
27461 325 4 9.17552 30.7924 4.38889 
27470 325 4 9.01448 29.8886 4.78555 
27469 325 4 8.57129 30.5532 5.44421 
27043 303 4 8.85321 31.6095 4.84936 
27042 303 4 9.0009 32.5164 4.45467 
27460 325 4 8.83486 31.6101 4.85303 
27459 325 4 8.99591 32.5139 4.45637 
27051 303 4 8.3675 32.5318 5.51985 
27467 325 4 8.36389 32.541 5.52213 
27468 325 4 8.33316 31.524 5.71382 
27052 303 4 8.35204 31.5141 5.70947 
27356 319 4 7.37814 29.3638 6.47696 
27417 322 4 7.38387 29.3508 6.45233 
27400 322 4 6.19571 30.9593 6.48528 
27406 322 4 6.78979 30.1551 6.4688 
27347 319 4 6.78111 30.166 6.49076 
27416 322 4 7.26707 29.5771 7.45582 
27405 322 4 6.52945 30.5666 7.34228 
27346 319 4 6.52283 30.5821 7.36266 
27355 319 4 7.26462 29.5962 7.47947 
27343 319 4 6.18408 30.9681 6.50457 
27415 322 4 6.8632 30.1738 8.19927 
27354 319 4 6.86157 30.1961 8.22075 
27353 319 4 6.27699 31.0029 8.50218 
27414 322 4 6.28047 30.981 8.48345 
27183 310 4 14.6801 29.4155 16.8669 
27255 314 4 14.6677 29.3888 16.863 
27180 310 4 12.0589 29.249 17.9167 
27258 314 4 12.0523 29.2311 17.9285 
27181 310 4 12.8609 28.8074 17.4334 
27257 314 4 12.8491 28.7873 17.4386 
27256 314 4 13.8064 28.8451 17.0486 
27182 310 4 13.8203 28.8683 17.0491 
27173 310 4 12.5388 30.379 18.0865 
27251 314 4 12.5387 30.3581 18.0993 
27174 310 4 13.1547 29.7452 17.6183 
27250 314 4 13.1486 29.7231 17.6251 
27179 310 4 11.6292 30.0749 18.3697 
27259 314 4 11.6294 30.0574 18.3871 
27190 310 4 11.687 31.0637 18.6709 
27260 314 4 11.6939 31.0449 18.6915 
27175 310 4 14.0643 30.0493 17.3351 
27249 314 4 14.0579 30.0238 17.3373 
27248 314 4 13.4481 30.6588 17.8116 
27172 310 4 13.4485 30.6831 17.8033 
27176 310 4 14.3581 30.9872 17.5201 
27254 314 4 14.3574 30.9595 17.5238 
27265 314 4 15.2667 31.2602 17.236 
27184 310 4 15.2099 30.3024 16.9357 
27266 314 4 15.2022 30.2728 16.9316 
27178 310 4 12.8326 31.3168 18.2714 
27252 314 4 12.8382 31.2939 18.2858 
27188 310 4 13.0766 32.4978 18.5574 
27262 314 4 13.0897 32.4726 18.5746 
27263 314 4 14.047 32.5303 18.1846 
27177 310 4 13.7423 31.6209 17.9882 
27253 314 4 13.7475 31.5946 17.9981 
27187 310 4 14.036 32.5588 18.1732 
27264 314 4 14.8438 32.0866 17.6946 
27186 310 4 14.838 32.1171 17.6898 
27185 310 4 15.2677 31.2912 17.2369 
27261 314 4 12.2284 31.9289 18.7601 
27189 310 4 12.2168 31.9506 18.7396 
27337 318 4 20.4607 4.9331 19.871 
27328 318 4 20.9938 5.56821 20.4301 
27336 318 4 20.8068 5.64848 19.2075 
27338 318 4 20.4002 4.55807 20.8342 
27339 318 4 20.6416 4.62388 21.8388 
27330 318 4 21.6174 6.04871 21.9729 
27329 318 4 21.0843 5.4136 21.4139 
27340 318 4 21.1203 5.1129 22.6157 
27341 318 4 21.7079 5.8941 22.9568 
27097 306 4 19.9094 1.07259 25.7907 
27103 306 4 20.7174 1.39626 25.2984 
27101 306 4 18.7644 1.25389 27.0778 
27112 306 4 19.2564 2.28885 27.5499 
27102 306 4 19.5725 1.57756 26.5855 
27113 306 4 20.0436 2.40621 26.8879 
27096 306 4 19.1013 0.748915 26.2831 
27114 306 4 20.5784 2.0795 26.0638 
27111 306 4 18.4275 1.75886 27.8725 
27110 306 4 17.7793 0.958266 27.7692 
27335 318 4 21.3459 6.51253 19.0213 
27327 318 4 21.4364 6.35792 20.0052 
27334 318 4 21.9336 7.29373 19.3624 
27324 318 4 21.5269 6.20331 20.9891 
27325 318 4 22.0601 6.83842 21.5481 
27326 318 4 21.9696 6.99303 20.5642 
27342 318 4 22.247 6.75815 22.7706 
27446 324 4 22.0937 18.4768 19.6179 
27448 324 4 21.9373 20.3253 18.8702 
27447 324 4 21.8363 19.3135 19.0651 
27298 316 4 21.8911 25.3938 2.24249 
27428 323 4 21.3422 27.4532 1.91344 
27374 320 4 21.3173 27.4711 1.89135 
27299 316 4 21.8503 25.0568 3.22057 
27300 316 4 22.2435 25.0336 4.17805 
27372 320 4 20.7554 26.5698 3.58608 
27430 323 4 20.7863 26.5497 3.60903 
27421 323 4 21.8719 27.5912 2.7504 
27422 323 4 21.5939 27.1394 3.5982 
27429 323 4 20.8574 26.8889 2.63343 
27373 320 4 20.8281 26.9103 2.61107 
27365 320 4 21.6053 27.3214 3.08746 
27364 320 4 21.7506 27.1367 4.05949 
27370 320 4 21.8206 26.8312 5.25858 
27432 323 4 21.8457 26.8256 5.28295 
27423 323 4 22.1236 27.2774 4.43516 
27431 323 4 21.1481 26.5266 4.57883 
27371 320 4 21.1187 26.5408 4.55514 
27375 320 4 22.092 28.102 1.61978 
27427 323 4 22.1109 28.0915 1.64197 
27366 320 4 22.2373 27.9173 2.59182 
27107 306 4 18.159 31.4545 25.6783 
27105 306 4 19.7751 32.1019 24.6936 
27106 306 4 18.9463 31.5719 25.0162 
27098 306 4 19.4382 32.6069 25.4883 
27104 306 4 20.4234 32.9025 24.7969 
27108 306 4 17.6242 31.7812 26.5024 
27099 306 4 18.6302 32.2832 25.9807 
27109 306 4 17.4852 32.4645 27.2677 
27100 306 4 18.2933 32.7882 26.7754 
27087 305 4 27.6062 2.67075 12.7705 
27036 302 4 27.6039 2.68284 12.7843 
27035 302 4 27.1744 1.97311 13.4037 
27086 305 4 27.1793 1.96724 13.3988 
27034 302 4 27.2476 1.09434 13.9462 
27085 305 4 27.2557 1.09554 13.9521 
27281 315 4 27.4842 4.39191 16.48 
27227 312 4 27.4731 4.40227 16.4885 
27333 318 4 22.4122 7.78275 20.1394 
27331 318 4 22.5932 7.47353 22.1071 
27332 318 4 22.6536 7.84856 21.144 
27445 324 4 22.6405 18.0394 20.3805 
27440 324 4 22.505 19.6402 19.733 
27439 324 4 22.9072 19.0032 20.3907 
27438 324 4 23.1738 19.967 20.4009 
27441 324 4 22.7717 20.604 19.7432 
27449 324 4 22.3696 21.241 19.0855 
27450 324 4 23.0174 21.8154 19.6532 
27442 324 4 23.4405 20.9307 20.4111 
27451 324 4 23.7071 21.8945 20.4213 
27456 324 4 23.3302 18.1185 21.1486 
27455 324 4 23.978 18.6929 21.7163 
27444 324 4 23.5759 19.3299 21.0586 
27443 324 4 23.8426 20.2937 21.0688 
27454 324 4 24.4103 19.6086 21.9316 
27453 324 4 24.5113 20.6204 21.7367 
27452 324 4 24.2539 21.4571 21.1839 
27297 316 4 22.3549 25.9544 1.50589 
27296 316 4 23.1174 26.5882 1.20813 
27295 316 4 23.9744 27.1256 1.42901 
27288 316 4 23.7221 26.6768 2.28636 
27289 316 4 22.9123 26.0912 2.32479 
27294 316 4 24.6961 27.4224 2.10934 
27290 316 4 22.6601 25.6424 3.18213 
27291 316 4 23.2175 25.7792 4.00104 
27286 316 4 23.4698 26.228 3.1437 
27292 316 4 24.0273 26.3648 3.9626 
27304 316 4 25.0485 27.0622 4.0449 
27287 316 4 24.2795 26.8136 3.10526 
27293 316 4 25.0893 27.3992 3.06682 
27302 316 4 23.8222 25.8678 5.07926 
27301 316 4 22.9652 25.3305 4.85838 
27363 320 4 22.5279 27.5479 4.53588 
27369 320 4 22.6731 27.3632 5.50792 
27433 323 4 22.6922 27.3668 5.53275 
27303 316 4 24.5847 26.5017 4.7815 
27376 320 4 22.9445 28.634 1.86912 
27426 323 4 22.9574 28.6326 1.89176 
27420 323 4 22.6795 28.1809 2.73956 
27437 323 4 23.655 28.9317 2.59589 
27377 320 4 23.6464 28.9244 2.57256 
27425 323 4 23.2091 28.3188 3.57652 
27367 320 4 23.0145 28.3285 3.06821 
27378 320 4 24.0097 28.8954 3.54162 
27436 323 4 24.0167 28.9085 3.56568 
27362 320 4 22.3826 27.7326 3.56385 
27368 320 4 23.1598 28.1438 4.04024 
27419 323 4 22.4015 27.7291 3.58736 
27424 323 4 22.9312 27.8671 4.42432 
27435 323 4 23.9457 28.5694 4.54128 
27379 320 4 23.937 28.5549 4.51663 
27380 320 4 23.4478 27.9941 5.23635 
27434 323 4 23.4609 28.0051 5.26128 
27020 302 4 29.0506 1.34225 13.1166 
27077 305 4 29.0576 1.33952 13.119 
27026 302 4 28.7358 2.1878 12.6853 
27080 305 4 28.7398 2.17853 12.6773 
27025 302 4 28.1125 1.65768 13.2602 
27079 305 4 28.1185 1.65338 13.2589 
27021 302 4 29.6739 1.87238 12.5418 
27081 305 4 29.6789 1.86467 12.5374 
27091 305 4 30.8595 1.5835 12.2858 
27028 302 4 30.8535 1.59016 12.2871 
27082 305 4 29.9967 1.02566 12.9791 
27022 302 4 29.9886 1.02682 12.9731 
27027 302 4 30.2973 2.4025 11.9669 
27090 305 4 30.3002 2.38982 11.9557 
27088 305 4 28.4219 3.01755 12.2355 
27037 302 4 28.4211 3.03336 12.2539 
27089 305 4 29.408 2.91472 11.9373 
27038 302 4 29.4069 2.93075 11.9547 
27078 305 4 28.4363 0.814368 13.7006 
27024 302 4 28.4272 0.812127 13.6915 
27278 315 4 29.3719 5.81531 14.9272 
27218 312 4 29.3529 5.8198 14.9208 
27277 315 4 30.3269 5.43683 14.7983 
27219 312 4 30.3073 5.44091 14.7886 
27276 315 4 31.0307 4.699 14.9776 
27220 312 4 31.012 4.70385 14.9672 
27285 315 4 30.3573 2.4584 16.5672 
27223 312 4 30.3469 2.46938 16.5688 
27215 312 4 28.91 3.43583 16.5287 
27272 315 4 28.5689 3.79407 16.434 
27216 312 4 28.4244 4.25323 16.2186 
27210 312 4 29.3758 4.10419 15.9486 
27267 315 4 29.3895 4.09571 15.9485 
27273 315 4 29.3983 3.23591 16.4591 
27214 312 4 29.8613 3.28679 16.2587 
27268 315 4 30.2189 3.53756 15.9737 
27274 315 4 31.0483 2.9794 15.9988 
27222 312 4 31.0349 2.98823 15.995 
27213 312 4 30.3271 3.95515 15.6787 
27221 312 4 31.2784 3.80611 15.4088 
27275 315 4 31.2948 3.79951 15.417 
27211 312 4 28.8902 4.92159 15.6385 
27280 315 4 27.7307 5.21203 15.8982 
27271 315 4 28.5601 4.65387 15.9233 
27228 312 4 27.7166 5.22014 15.9023 
27217 312 4 28.4046 5.739 15.3284 
27279 315 4 28.4216 5.73303 15.3298 
27270 315 4 29.3807 4.95551 15.4379 
27212 312 4 29.8415 4.77255 15.3686 
27269 315 4 30.2101 4.39736 15.463 
27224 312 4 29.3986 2.38857 16.9765 
27284 315 4 29.4071 2.37611 16.9698 
27225 312 4 28.4443 2.76747 17.1087 
27283 315 4 28.4521 2.7546 17.0987 
27226 312 4 27.7395 3.50453 16.9301 
27282 315 4 27.7483 3.49243 16.9194 
27010 301 4 31.2728 15.2505 3.96563 
27202 311 4 31.2895 15.2539 3.93906 
27203 311 4 32.3161 15.3468 3.84147 
27009 301 4 32.298 15.3508 3.8617 
27199 311 4 30.2047 13.6241 5.98052 
27013 301 4 30.2127 13.5985 6.00221 
27011 301 4 30.4569 14.8435 4.45602 
27201 311 4 30.4676 14.8558 4.42682 
27200 311 4 30.0706 14.2593 5.17405 
27012 301 4 30.0689 14.2388 5.20146 
27193 311 4 31.0619 14.1872 5.28461 
27004 301 4 31.0613 14.1723 5.30467 
27196 311 4 33.0444 14.0429 5.50574 
27007 301 4 33.0463 14.0393 5.51111 
27005 301 4 31.4518 13.6 6.0258 
27192 311 4 31.4437 13.6177 6.01267 
27003 301 4 31.6633 14.6782 4.68676 
27194 311 4 31.6713 14.6845 4.66712 
27195 311 4 32.6626 14.6123 4.77769 
27002 301 4 32.6558 14.6117 4.78998 
27001 301 4 32.0538 14.1058 5.40789 
27191 311 4 32.0532 14.115 5.39518 
27198 311 4 30.8342 13.1204 6.63016 
27014 301 4 30.8498 13.0942 6.64371 
27015 301 4 31.8096 12.8609 6.95408 
27209 311 4 31.7903 12.8833 6.94888 
27208 311 4 32.8168 12.9762 6.85129 
27016 301 4 32.8348 12.9612 6.85015 
27197 311 4 32.435 13.5456 6.12323 
27006 301 4 32.4443 13.5335 6.12902 
27237 313 4 28.6322 18.1745 14.4965 
27128 307 4 28.5933 18.1738 14.4974 
27239 313 4 28.2483 20.118 14.2211 
27126 307 4 28.2357 20.1219 14.2187 
27238 313 4 28.2795 19.0853 14.1533 
27127 307 4 28.2519 19.0887 14.1535 
27231 313 4 28.8795 19.3126 14.9203 
27118 307 4 28.8507 19.826 14.9496 
27119 307 4 29.0296 18.8519 15.089 
27240 313 4 28.547 20.9957 14.6819 
27125 307 4 28.5491 20.9964 14.6756 
27129 307 4 29.1686 17.6224 15.1584 
27236 313 4 29.212 17.6295 15.1588 
27230 313 4 29.3458 18.5846 15.4231 
27120 307 4 29.6446 18.556 15.8199 
27131 307 4 30.3825 18.0637 16.6854 
27247 313 4 29.8635 17.5963 15.9628 
27130 307 4 29.8235 17.582 15.9592 
27246 313 4 30.4121 18.0839 16.693 
27115 307 4 29.4658 19.5301 15.6805 
27229 313 4 29.4795 19.5398 15.6874 
27232 313 4 29.0133 20.2677 15.1847 
27234 313 4 30.0796 19.767 16.4545 
27121 307 4 30.0809 19.2342 16.4114 
27235 313 4 29.9458 18.8118 16.1902 
27116 307 4 29.9021 20.2082 16.2721 
27117 307 4 29.287 20.5041 15.5412 
27241 313 4 29.0956 21.4832 15.4121 
27124 307 4 29.1082 21.4781 15.4018 
27122 307 4 30.3383 20.8863 16.8636 
27123 307 4 29.7631 21.4378 16.2027 
27243 313 4 30.3268 20.9051 16.8784 
27233 313 4 29.6133 20.4949 15.9517 
27242 313 4 29.747 21.4501 16.2161 
27245 313 4 30.7108 18.9616 17.1537 
27132 307 4 30.696 18.9383 17.1423 
27133 307 4 30.6798 19.9714 17.2075 
27244 313 4 30.6796 19.9942 17.2216 
27397 321 4 32.9969 21.9596 20.7789 
27162 309 4 32.999 21.979 20.8063 
27386 321 4 32.5906 21.4854 21.8494 
27155 309 4 32.4704 21.9572 21.655 
27154 309 4 32.5382 21.1686 22.2662 
27171 309 4 32.7088 20.1394 22.9353 
27394 321 4 32.7002 20.1138 22.9015 
27393 321 4 32.0757 20.3355 23.6969 
27170 309 4 32.0775 20.3582 23.7261 
27158 309 4 31.4133 21.9137 23.3523 
27385 321 4 32.3247 21.0166 22.6918 
27381 321 4 31.9491 21.9194 22.482 
27153 309 4 31.9418 21.9354 22.5037 
27159 309 4 32.0097 21.1468 23.1149 
27384 321 4 31.6831 21.4505 23.3244 
27391 321 4 30.9013 21.8791 24.1852 
27168 309 4 30.8847 21.8919 24.201 
27392 321 4 31.4172 20.9817 24.1667 
27169 309 4 31.4098 20.9997 24.1894 
27146 308 4 32.7428 23.8736 11.3114 
27145 308 4 32.7042 24.5264 12.1141 
27388 321 4 31.1979 23.7249 22.0626 
27165 309 4 31.1748 23.7315 22.072 
27387 321 4 32.215 22.3882 21.6397 
27164 309 4 31.8062 23.5126 21.2812 
27398 321 4 32.4809 22.857 20.7973 
27163 309 4 32.4738 22.8711 20.8179 
27399 321 4 31.8225 23.5032 21.2672 
27156 309 4 31.874 22.724 21.8924 
27382 321 4 31.5735 22.8222 22.2723 
27389 321 4 30.7746 23.4629 22.9704 
27166 309 4 30.749 23.4691 22.9785 
27167 309 4 30.6428 22.7957 23.7578 
27390 321 4 30.666 22.7873 23.7473 
27157 309 4 31.3454 22.7022 22.7411 
27383 321 4 31.3076 22.3533 23.1147 
27029 302 4 30.9267 33.0743 12.8296 
27092 305 4 30.9359 33.0747 12.8392 
27084 305 4 27.815 32.6521 14.2822 
27032 302 4 28.6942 32.1167 14.2785 
27095 305 4 28.7072 32.1272 14.3006 
27023 302 4 29.3653 32.8596 13.548 
27083 305 4 29.3754 32.8634 13.5607 
27033 302 4 27.8038 32.6449 14.2664 
27094 305 4 29.6933 32.0244 14.0024 
27031 302 4 29.68 32.0141 13.9794 
27030 302 4 30.4972 32.3646 13.449 
27093 305 4 30.509 32.3712 13.4675 
ITEM: TIMESTEP
50000
ITEM: NUMBER OF ATOMS
475
ITEM: BOX BOUNDS pp pp pp
7.1354277009520928e-01 3.3076457229894366e+01
7.1354277009520928e-01 3.3076457229894366e+01
7.1354277009520928e-01 3.3076457229894366e+01
ITEM: ATOMS id mol type x y z 
27361 319 4 4.63862 2.1549 3.35284 
27410 322 4 4.65677 2.14024 3.32757 
27409 322 4 5.17185 1.60527 2.6062 
27360 319 4 5.14491 1.62139 2.62419 
27402 322 4 5.323 1.10333 3.45784 
27349 319 4 5.30634 1.11771 3.47292 
27411 322 4 4.36071 2.26288 4.31205 
27350 319 4 4.3545 2.27554 4.34107 
27403 322 4 4.91743 1.43213 4.31076 
27344 319 4 4.91113 1.44479 4.33136 
27408 322 4 5.76793 0.801309 2.34122 
27413 322 4 4.663 1.259 6.01532 
27412 322 4 4.36299 1.94032 5.29583 
27351 319 4 4.36868 1.95098 5.3241 
27404 322 4 5.06858 0.930191 5.1624 
27345 319 4 5.07256 0.941114 5.18008 
27352 319 4 4.67735 1.26819 6.03852 
27359 319 4 5.73771 0.817954 2.35038 
27195 311 4 1.39541 16.2534 2.3372 
27002 301 4 1.39273 16.2653 2.32709 
27197 311 4 1.14927 14.7085 3.08081 
27006 301 4 1.13548 14.7247 3.07587 
27207 311 4 2.26783 14.6345 3.60935 
27017 301 4 2.25107 14.6475 3.61022 
27016 301 4 1.46767 13.9714 3.64361 
27208 311 4 1.48787 13.9546 3.64377 
27001 301 4 0.803296 15.4779 2.50813 
27191 311 4 0.810668 15.4625 2.51785 
27007 301 4 1.72492 15.512 2.89483 
27196 311 4 1.73401 15.4994 2.90016 
27205 311 4 2.55205 16.4184 2.7507 
27019 301 4 2.54811 16.4264 2.7456 
27018 301 4 2.64654 15.5461 3.28153 
27206 311 4 2.65735 15.5364 3.28246 
27203 311 4 1.09488 17.2464 1.6592 
27009 301 4 1.10034 17.2569 1.64351 
27204 311 4 1.98015 17.0443 2.15655 
27008 301 4 1.98216 17.0526 2.14604 
27147 308 4 1.88007 25.7005 7.44464 
27138 308 4 2.41842 26.2166 8.1109 
27148 308 4 2.58961 26.204 6.88348 
27149 308 4 3.39752 26.8492 6.82974 
27150 308 4 4.08733 27.4632 7.2978 
27139 308 4 3.17714 26.7909 7.80345 
27145 308 4 1.43932 25.5839 9.39207 
27146 308 4 1.45904 25.4735 8.36284 
27137 308 4 2.19804 26.1583 9.08462 
27136 308 4 2.73638 26.6744 9.75088 
27134 308 4 2.95676 26.7327 8.77717 
27140 308 4 3.71549 27.307 8.46972 
27135 308 4 3.49511 27.2488 9.44343 
27143 308 4 2.51601 26.6161 10.7246 
27144 308 4 1.82619 26.0022 10.2565 
27142 308 4 3.32392 27.2613 10.6709 
27347 319 4 6.0244 32.1462 4.31193 
27343 319 4 5.46777 32.977 4.32165 
27400 322 4 5.47415 32.9643 4.30948 
27346 319 4 5.62919 32.4733 5.17037 
27401 322 4 5.87972 32.6355 3.45655 
27348 319 4 5.86297 32.6499 3.46321 
27415 322 4 5.77644 31.9604 6.01275 
27406 322 4 6.03087 32.1336 4.30819 
27354 319 4 5.79062 31.9696 6.0191 
27405 322 4 5.6253 32.4624 5.16111 
27151 308 4 4.47421 27.8814 8.16227 
27353 319 4 5.19782 32.773 6.29291 
27414 322 4 5.18036 32.7644 6.27774 
27141 308 4 4.03345 27.7649 10.1097 
27152 308 4 4.45449 27.9918 9.19149 
27041 303 4 9.18657 2.13992 1.81704 
27458 325 4 9.18914 2.12626 1.8134 
27040 303 4 9.51014 1.29529 1.39046 
27463 325 4 9.51405 1.28084 1.38939 
27039 303 4 8.92568 1.25409 2.20088 
27457 325 4 8.93315 1.24128 2.20245 
27475 325 4 9.89951 2.30885 0.814371 
27047 303 4 9.90181 2.32452 0.821869 
27048 303 4 9.44746 3.02574 1.43321 
27464 325 4 9.44513 3.01124 1.42435 
27465 325 4 8.85357 3.23937 2.24282 
27049 303 4 8.8533 3.25226 2.25024 
27052 303 4 7.75675 1.17171 3.82173 
27051 303 4 7.87717 2.18183 3.62926 
27468 325 4 7.77134 1.16215 3.82857 
27467 325 4 7.88721 2.1718 3.63089 
27043 303 4 8.34122 1.2129 3.0113 
27042 303 4 8.60211 2.09873 2.62747 
27459 325 4 8.60824 2.08669 2.62646 
27460 325 4 8.35225 1.20171 3.01551 
27466 325 4 8.28333 2.93211 3.05047 
27050 303 4 8.27854 2.94336 3.05405 
27262 314 4 11.4217 2.0728 16.9789 
27188 310 4 11.422 2.06851 16.9731 
27189 310 4 10.8204 1.44999 17.5453 
27261 314 4 10.8215 1.44783 17.5456 
27474 325 4 10.095 1.3204 32.9392 
27046 303 4 10.0946 1.33648 32.9429 
27072 304 4 9.50096 10.5286 23.2885 
27071 304 4 9.71625 11.049 22.4198 
27073 304 4 9.09063 10.5008 24.2387 
27074 304 4 8.59521 10.9729 25.0155 
27063 304 4 8.93184 11.4337 23.9154 
27308 317 4 8.51207 16.2875 5.39327 
27316 317 4 8.41414 16.2988 4.3981 
27315 317 4 8.96859 15.4489 4.60314 
27307 317 4 9.01847 15.5484 5.83749 
27314 317 4 9.42695 14.8206 5.28654 
27312 317 4 9.6228 14.7979 7.27688 
27311 317 4 8.70792 16.2648 7.38361 
27306 317 4 9.11639 15.5371 6.83266 
27323 317 4 9.30781 15.4096 8.05051 
27305 317 4 8.60999 16.2762 6.38844 
27322 317 4 8.80584 16.2535 8.37878 
27313 317 4 9.66641 14.5823 6.2652 
27070 304 4 9.67881 11.9224 21.8651 
27069 304 4 9.39868 12.9148 21.7732 
27068 304 4 8.95091 13.7604 22.1687 
27058 304 4 8.77306 12.3667 23.5921 
27062 304 4 9.24465 11.7078 23.0059 
27061 304 4 9.08587 12.6407 22.6827 
27059 304 4 8.30146 13.0255 24.1783 
27060 304 4 8.61427 13.2996 23.2688 
27067 304 4 8.45548 14.2325 22.9456 
27066 304 4 8.04515 14.2047 23.8957 
27076 304 4 7.8673 12.8109 25.3191 
27075 304 4 8.14744 11.8185 25.411 
27064 304 4 8.46025 12.0926 24.5016 
27065 304 4 7.82986 13.6843 24.7645 
27317 317 4 7.91217 17.1427 4.72638 
27318 317 4 7.59718 17.7544 5.50001 
27309 317 4 8.10359 17.0153 5.94422 
27320 317 4 7.79303 17.7318 7.49035 
27319 317 4 7.55358 17.97 6.51169 
27310 317 4 8.20151 17.004 6.93939 
27321 317 4 8.25139 17.1035 8.17375 
27462 325 4 9.25806 32.7588 1.77844 
27045 303 4 9.24925 32.7724 1.77429 
27056 303 4 9.57282 31.9277 1.34771 
27472 325 4 9.58298 31.9134 1.35443 
27055 303 4 8.99806 31.6188 2.15152 
27471 325 4 9.01274 31.6061 2.16208 
27057 303 4 9.97419 32.6893 0.772504 
27418 322 4 6.58531 31.6254 3.32312 
27357 319 4 6.56685 31.64 3.31919 
27358 319 4 6.25818 32.3228 2.60477 
27407 322 4 6.28529 32.3067 2.60363 
27053 303 4 7.94955 32.5466 3.57989 
27469 325 4 7.96679 32.5366 3.59053 
27054 303 4 8.4039 31.8454 2.96855 
27470 325 4 8.42117 31.8342 2.98055 
27461 325 4 8.67716 32.7192 2.5915 
27044 303 4 8.66479 32.7312 2.58472 
27473 325 4 9.9791 32.6737 0.774004 
27355 319 4 6.29691 31.4361 5.29046 
27356 319 4 6.58103 31.3154 4.30222 
27417 322 4 6.58759 31.3028 4.30691 
27416 322 4 6.29152 31.4254 5.29138 
27179 310 4 10.8686 31.8832 18.0691 
27259 314 4 10.8755 31.8771 18.054 
27190 310 4 10.6178 32.8802 17.9465 
27260 314 4 10.6216 32.8742 17.9391 
27187 310 4 12.2615 2.20711 16.3833 
27186 310 4 13.1139 1.82867 15.9338 
27264 314 4 13.1152 1.84663 15.9391 
27263 314 4 12.2612 2.21877 16.3909 
27265 314 4 13.7548 1.05609 15.7447 
27185 310 4 13.7508 1.03457 15.7451 
27253 314 4 12.2882 1.25196 16.6451 
27177 310 4 12.2856 1.24228 16.6452 
27178 310 4 11.565 0.863722 17.2262 
27252 314 4 11.5683 0.866495 17.2225 
27108 306 4 16.6948 2.16896 22.975 
27109 306 4 16.5788 2.32628 23.9917 
27110 306 4 16.8044 2.86391 24.8472 
27256 314 4 13.2086 30.8604 16.8198 
27182 310 4 13.1975 30.8493 16.8411 
27249 314 4 13.062 32.0667 16.5763 
27175 310 4 13.0544 32.0541 16.588 
27254 314 4 13.035 33.0335 16.322 
27176 310 4 13.0303 33.0189 16.3261 
27184 310 4 14.0016 32.4005 15.8678 
27183 310 4 13.7991 31.4678 16.2689 
27266 314 4 14.0087 32.4219 15.8596 
27255 314 4 13.8088 31.4854 16.2532 
27180 310 4 11.5056 31.0892 17.8804 
27181 310 4 12.358 30.7107 17.431 
27257 314 4 12.3691 30.7145 17.4078 
27174 310 4 12.3338 31.6755 17.169 
27250 314 4 12.3421 31.6813 17.1536 
27173 310 4 11.5892 32.2618 17.4881 
27251 314 4 11.5953 32.2626 17.4767 
27172 310 4 12.3097 32.6404 16.9071 
27248 314 4 12.3151 32.6481 16.8994 
27258 314 4 11.5151 31.0866 17.8596 
27107 306 4 17.1211 2.43411 22.0695 
27106 306 4 17.7436 3.05069 21.518 
27105 306 4 18.3955 3.85348 21.4681 
27104 306 4 18.902 4.62738 21.9332 
27099 306 4 17.4872 3.08988 22.7299 
27098 306 4 18.1243 3.79956 22.4291 
27096 306 4 17.8532 3.74564 23.3902 
27100 306 4 17.216 3.03596 23.6909 
27097 306 4 18.4904 4.45533 23.0895 
27103 306 4 19.1276 5.16501 22.7888 
27114 306 4 19.0116 5.32233 23.8055 
27101 306 4 17.5821 3.69173 24.3513 
27111 306 4 17.3109 3.63781 25.3124 
27102 306 4 18.2192 4.40141 24.0506 
27112 306 4 17.9628 4.4406 25.2625 
27113 306 4 18.5853 5.05717 24.7109 
27336 318 4 18.3912 9.28973 16.8876 
27338 318 4 18.0755 7.54998 17.8225 
27339 318 4 18.4917 7.07299 18.6417 
27337 318 4 18.0387 8.36136 17.1804 
27328 318 4 18.7652 8.57966 17.8321 
27329 318 4 18.9917 7.93547 18.5627 
27327 318 4 19.2652 9.44213 17.7531 
27324 318 4 19.4917 8.79795 18.4837 
27326 318 4 19.9916 9.66043 18.4048 
27334 318 4 19.8074 10.5377 17.5489 
27333 318 4 20.4916 10.5229 18.3258 
27332 318 4 20.9079 10.0459 19.145 
27340 318 4 19.1759 7.0582 19.4186 
27341 318 4 19.9447 7.50957 19.945 
27330 318 4 19.7182 8.15376 19.2144 
27325 318 4 20.2181 9.01624 19.1354 
27342 318 4 20.5921 8.30617 20.0799 
27331 318 4 20.9446 9.23453 19.787 
27335 318 4 19.0386 10.0863 17.0225 
27447 324 4 22.2428 22.0941 15.6847 
27300 316 4 21.2813 27.6583 1.09961 
27431 323 4 20.0819 29.0846 1.54004 
27371 320 4 20.0839 29.0761 1.52748 
27301 316 4 21.8247 27.8492 1.95992 
27291 316 4 22.2398 28.4279 1.25789 
27422 323 4 20.6893 29.8307 0.758782 
27364 320 4 20.7726 29.745 1.24763 
27423 323 4 21.0498 29.8437 1.6915 
27362 320 4 21.4614 30.4138 0.967784 
27419 323 4 21.4711 30.412 0.984651 
27368 320 4 22.1187 30.7639 1.6353 
27424 323 4 21.8316 30.4249 1.91737 
27363 320 4 21.4299 30.0951 1.91514 
27425 323 4 22.2529 30.9932 1.21052 
27370 320 4 20.6296 29.2735 2.38484 
27432 323 4 20.6285 29.2754 2.39835 
27433 323 4 21.4009 29.7708 2.87786 
27369 320 4 21.3983 29.7763 2.8625 
27434 323 4 22.1921 30.4379 2.85009 
27380 320 4 22.1839 30.45 2.83248 
27299 316 4 21.1059 27.8288 32.4565 
27430 323 4 19.9075 29.2494 32.8958 
27297 316 4 21.936 28.9863 31.0524 
27289 316 4 22.2954 28.9965 31.9856 
27372 320 4 19.9072 29.2373 32.8831 
27290 316 4 21.8803 28.4178 32.6876 
27298 316 4 21.3455 28.3149 31.5744 
27367 320 4 22.1502 31.0826 33.0509 
27429 323 4 20.1521 29.7258 32.0097 
27373 320 4 20.147 29.7136 31.9957 
27365 320 4 20.8042 30.0637 32.6632 
27421 323 4 21.1106 30.399 32.4148 
27366 320 4 21.493 30.7326 32.3833 
27374 320 4 20.739 30.3776 31.466 
27427 323 4 21.5414 31.0532 31.4544 
27375 320 4 21.5246 31.0513 31.436 
27428 323 4 20.7502 30.386 31.4821 
27420 323 4 21.8924 30.9802 32.6407 
27087 305 4 27.0108 4.83517 9.20587 
27036 302 4 27.015 4.82093 9.21591 
27095 305 4 27.1868 1.76846 10.8075 
27032 302 4 27.2035 1.75371 10.8151 
27033 302 4 26.4376 2.40582 10.5703 
27084 305 4 26.4228 2.42043 10.5564 
27035 302 4 26.3287 4.17669 9.64701 
27086 305 4 26.3212 4.191 9.63168 
27078 305 4 27.2573 2.85846 10.2219 
27024 302 4 27.2694 2.84388 10.2293 
27034 302 4 26.1174 3.29269 10.1428 
27085 305 4 26.106 3.30714 10.126 
27079 305 4 27.2065 3.74374 9.75954 
27025 302 4 27.215 3.72932 9.76765 
27272 315 4 27.0349 5.87351 13.2453 
27215 312 4 27.3732 5.51324 13.2856 
27225 312 4 26.8798 4.77403 13.744 
27282 315 4 26.1958 5.50171 13.6423 
27226 312 4 26.1813 5.52891 13.625 
27283 315 4 26.8987 4.74893 13.748 
27280 315 4 26.207 7.34992 12.8779 
27228 312 4 26.2052 7.36607 12.8347 
27279 315 4 26.9181 7.95012 12.424 
27217 312 4 26.9212 7.95608 12.3752 
27271 315 4 27.0406 6.79761 12.8631 
27211 312 4 27.3939 7.10427 12.6011 
27227 312 4 25.9344 6.47766 13.2921 
27281 315 4 25.9426 6.45374 13.3238 
27216 312 4 26.9005 6.36506 13.0596 
27445 324 4 23.0336 20.4432 16.4907 
27446 324 4 22.5027 21.1181 15.9122 
27440 324 4 22.8783 22.168 16.4533 
27439 324 4 23.2737 21.3425 16.8563 
27456 324 4 23.6931 20.2503 17.265 
27455 324 4 24.3046 20.591 18.0279 
27444 324 4 23.9092 21.4164 17.6249 
27438 324 4 23.5138 22.2419 17.2219 
27454 324 4 24.7042 21.374 18.5747 
27441 324 4 23.1184 23.0673 16.8189 
27449 324 4 22.723 23.8927 16.416 
27448 324 4 22.3234 23.1097 15.8691 
27450 324 4 23.3345 24.2334 17.1788 
27451 324 4 23.9941 24.0405 17.9532 
27442 324 4 23.7539 23.1412 17.5875 
27452 324 4 24.5249 23.3656 18.5316 
27453 324 4 24.7849 22.3896 18.7591 
27443 324 4 24.1493 22.3157 17.9905 
27292 316 4 23.0143 29.0169 1.48901 
27287 316 4 23.4293 29.5956 0.78698 
27304 316 4 23.9641 29.6985 1.90026 
27379 320 4 22.7759 31.114 2.30281 
27435 323 4 22.7901 31.0981 2.32247 
27293 316 4 24.2038 30.1846 1.01811 
27378 320 4 23.0157 31.5904 1.41542 
27436 323 4 23.0347 31.5745 1.43639 
27302 316 4 22.5906 28.3501 2.44401 
27303 316 4 23.3737 29.027 2.42217 
27376 320 4 22.2932 31.5542 31.9136 
27296 316 4 22.719 29.6632 31.0306 
27286 316 4 22.6548 29.0067 32.9188 