9000
Atoms. Timestep: 0
O 1.737930 1.177830 1.849900
O 1.267030 2.000850 1.970660
O 2.522380 1.624110 2.194330
O 3.218260 1.335510 1.351390
O 2.919940 0.761767 2.427210
O 4.045290 1.695750 0.977757
O 4.767710 2.130210 2.400000
O 2.143150 2.543830 2.076530
O 0.729490 2.792310 2.304860
O 3.328750 3.232720 2.240620
O 2.661100 3.205740 1.528510
O 4.169090 2.843840 2.400720
O 4.972080 3.572270 2.490390
O 5.439680 2.758830 2.340640
O 5.332110 3.578070 1.592650
O 1.547900 2.677870 2.853080
O 4.293470 0.982343 32.753200
O 4.596420 2.052190 32.038500
O 5.001770 1.622060 32.859200
O 5.419450 3.455560 33.026700
O 5.748950 2.626510 32.962600
O 4.823580 2.686520 32.742500
O 4.184850 30.500200 0.803018
O 3.439370 31.094300 1.771820
O 4.360410 30.793200 1.693480
O 3.264370 31.962100 2.142330
O 3.708480 32.653800 2.713570
O 5.371970 30.729400 32.011600
O 5.002190 30.826900 32.878200
O 5.685250 30.050400 32.590300
O 1.764340 4.948290 0.861354
O 1.081460 5.430860 32.778100
O 0.849725 5.236490 31.820700
O 3.079620 5.810960 32.588000
O 3.520740 5.023960 32.539200
O 2.718450 4.844610 33.068500
O 2.802450 6.553240 32.022900
O 26.128500 5.619360 0.996022
O 26.747500 5.387090 30.407500
O 26.510600 4.525520 30.860100
O 25.522400 5.248670 32.694000
O 26.186600 5.919740 31.815700
O 26.683300 5.170460 31.532400
O 25.659300 6.169600 32.592500
O 30.560200 4.185100 0.880365
O 28.761200 5.043640 29.022300
O 28.367700 3.718270 30.784700
O 29.058100 3.871630 30.117100
O 28.200900 5.693030 29.519400
O 27.781100 5.517200 30.368000
O 28.956600 4.466480 30.906300
O 28.401000 4.591790 29.834700
O 29.454000 2.888650 32.547600
O 27.958200 3.459430 31.639500
O 28.665600 3.271130 32.226600
O 30.028200 3.697750 32.632900
O 31.143100 3.650320 32.039400
O 31.371700 3.745370 32.947000
O 31.831300 4.357680 31.978600
O 32.801300 4.405620 31.881100
O 2.279470 6.060810 2.080870
O 2.910050 5.468420 2.448150
O 1.900870 3.716320 3.390450
O 2.763790 3.755350 3.730060
O 1.698440 4.534700 2.854680
O 0.752809 4.683710 2.943180
O 3.496810 5.688230 4.166610
O 2.543720 5.732550 4.224060
O 3.364350 5.769770 3.244740
O 3.129970 3.313890 4.522540
O 3.885380 2.751000 4.586200
O 4.775430 3.224620 4.928120
O 4.548210 3.754600 5.676820
O 1.164280 6.106050 4.867660
O 1.788960 5.396740 4.842560
O 2.604280 5.668660 5.185290
O 4.677610 4.447780 4.973150
O 4.896440 4.675010 5.875090
O 5.232250 3.892740 6.325780
O 1.586090 6.598920 2.385520
O 1.878350 7.491280 2.309440
O 0.968458 9.167580 1.262010
O 1.593170 9.256020 2.005990
O 1.517730 8.348250 2.382890
O 0.749160 8.495820 32.998400
O 1.238450 9.783250 32.626800
O 1.061470 10.720000 32.788700
O 32.642200 5.004580 3.718140
O 32.864100 5.717040 4.269640
O 32.873600 9.158690 32.308600
O 5.134100 4.833940 1.578390
O 5.659810 5.605680 1.877830
O 5.291580 5.493120 0.906700
O 5.711240 5.630670 3.184430
O 5.592860 5.487900 4.128030
O 5.132190 5.110540 31.738400
O 4.682890 5.165960 32.572700
O 5.740230 5.489150 32.311500
O 5.934310 6.236910 1.200360
O 4.175020 7.267660 30.409700
O 3.484960 7.735100 30.118100
O 5.091230 7.456580 30.727000
O 4.952270 6.626290 31.146400
O 3.827690 8.625510 30.033400
O 4.556300 8.445930 30.548700
O 5.295630 7.849260 32.171500
O 5.863750 7.659200 31.447700
O 5.152000 6.124000 31.897300
O 4.682840 8.088010 31.461700
O 7.415740 5.576960 3.152860
O 6.538560 5.288190 2.834360
O 8.519180 7.719650 2.370020
O 7.290820 8.649000 1.413490
O 7.791970 7.959640 1.826930
O 7.381390 6.529590 2.913360
O 8.317170 6.908980 2.876770
O 7.428340 8.055240 31.162700
O 6.747320 7.447430 31.440600
O 7.419470 8.349890 32.902200
O 7.623130 8.555070 31.954600
O 1.036700 2.115350 4.381830
O 1.950410 2.122590 4.785710
O 1.505850 1.286960 4.880800
O 2.289390 30.938400 1.482290
O 1.339060 31.229500 1.667300
O 2.150460 31.755100 0.971729
O 1.160630 31.754000 2.409620
O 0.739371 30.890600 2.611960
O 1.190800 30.598000 3.436930
O 2.300080 32.277000 4.058290
O 1.471900 31.712900 4.233860
O 0.845677 31.888600 4.919180
O 2.064910 32.937700 4.666740
O 2.474810 29.278100 31.264100
O 3.310860 28.902100 31.156900
O 4.145670 28.601200 31.523300
O 6.080220 29.206900 31.412800
O 4.391220 29.223400 32.213800
O 5.238310 29.338500 31.833900
O 2.252060 30.012700 31.810400
O 2.481540 31.245400 32.614100
O 1.856900 30.528600 32.517700
O 32.620400 2.380630 3.951630
O 32.491000 3.551240 4.052580
O 32.206400 2.997010 3.368580
O 32.869900 30.574800 4.085270
O 31.963500 30.409800 4.124050
O 31.546900 31.254200 4.146600
O 31.334800 31.491300 5.013470
O 32.261200 31.686500 4.857050
N 3.444340 1.231570 5.768470
N 4.305260 0.865145 5.960230
N 5.377900 1.040150 5.792310
N 4.877840 0.854825 4.907370
N 3.182300 1.152130 7.590490
N 3.497220 1.052280 6.733790
N 4.963850 1.294820 6.609410
N 5.130160 1.142230 7.663840
N 5.790830 0.816441 7.054250
N 5.939980 1.503260 9.177350
N 1.568680 23.607400 5.457760
N 2.575210 23.372400 5.618620
N 4.864500 23.310500 6.027390
N 5.039130 23.502200 5.101070
N 5.649730 23.927500 4.460290
N 2.336450 24.308200 5.371620
N 3.249600 23.546400 6.974800
N 4.098060 23.477300 7.527720
N 2.537260 23.838200 6.459290
N 4.870860 23.638300 7.001010
N 6.076310 29.404800 1.035740
N 5.735310 29.528100 1.974650
N 5.964300 28.453600 4.091190
N 5.702150 30.757200 3.422660
N 5.784530 29.984000 2.771740
N 4.979950 30.811200 4.202290
N 5.804300 29.934300 4.088480
N 5.372500 31.587800 3.704900
N 4.418140 31.631400 4.076210
N 6.018250 32.234800 3.871030
N 5.372590 29.174900 4.408740
N 3.868980 31.144700 5.880080
N 4.835460 31.273400 5.879480
N 5.430730 30.377200 5.949720
N 5.664670 29.992600 5.138380
N 5.001050 30.843300 5.085510
N 4.144150 32.632100 5.050710
N 4.185530 32.039900 5.959790
N 4.850710 32.489700 4.348010
N 4.436670 31.694300 5.010940
N 5.754620 32.828400 4.639240
N 6.009560 32.759300 6.100520
N 5.742170 30.038200 6.772240
N 5.154050 30.869300 6.831330
N 5.148830 29.554600 7.276200
N 5.496890 30.404700 7.602960
N 3.889500 32.349500 6.783500
N 3.436450 32.620000 7.717900
N 4.172020 32.055200 7.787540
N 4.561040 31.591200 6.850910
N 4.850620 31.353400 7.682690
N 4.345740 33.062600 7.246880
N 5.920290 30.460100 9.398560
N 5.197660 30.776600 8.440710
N 5.800050 29.966500 8.436560
N 5.759780 32.121500 9.295880
N 5.361030 31.292200 9.205270
N 4.489160 32.963100 8.201230
N 5.555430 32.798900 8.579940
N 4.729520 32.168000 8.684870
N 4.384440 31.282500 8.702750
N 5.899070 32.329300 10.799600
N 5.145430 32.238200 11.379300
N 7.826050 2.282720 1.006180
N 7.640580 1.196240 1.538860
N 7.096960 0.754977 0.863832
N 8.731530 2.502710 0.937653
N 9.340370 1.236160 2.149520
N 8.008820 0.893473 2.371760
N 10.640700 1.391020 1.792540
N 10.822000 2.313150 1.619730
N 10.150900 1.816360 2.500130
N 7.502420 2.780730 1.786890
N 6.907830 3.299260 2.310840
N 11.378700 3.558080 0.791821
N 10.101900 6.080880 2.470030
N 8.586390 1.298860 3.068930
N 9.173630 2.031930 2.692390
N 8.517630 2.091810 3.585580
N 9.581480 2.247490 3.503140
N 7.988680 1.096070 4.030010
N 10.865900 1.186770 2.891320
N 10.484900 2.086080 3.343260
N 10.225500 1.515440 4.082320
N 7.440380 3.103160 3.108280
N 8.104840 2.558490 2.738720
N 11.081300 4.297240 2.966780
N 10.172200 4.306470 3.168840
N 10.594100 3.864020 4.111020
N 9.867430 3.145600 4.208200
N 9.273630 5.592560 2.744440
N 9.295630 4.658840 3.050690
N 7.565480 0.958472 5.059760
N 7.931940 1.812480 5.422370
N 8.884730 2.059270 4.969850
N 8.151640 1.883820 4.472870
N 9.623130 2.262030 4.446720
N 9.086660 1.225180 5.873810
N 8.078360 1.101860 6.061150
N 9.827760 2.050930 5.611860
N 9.755560 1.248370 5.032970
N 8.691760 3.815880 5.115220
N 8.791690 2.897760 5.413660
N 6.391530 4.968360 5.702040
N 6.624510 5.412920 4.886770
N 7.117990 4.436730 5.436220
N 8.109730 4.463190 5.590380
N 11.130400 5.474780 5.183150
N 10.263300 5.185480 4.919990
N 10.602600 4.331220 4.964410
N 9.060340 1.332670 6.939800
N 8.526370 0.856206 7.537630
N 9.863220 1.770930 6.522360
N 7.716820 3.850190 6.167940
N 8.984290 3.412510 7.289470
N 9.344450 4.183930 7.642620
N 8.072390 3.584340 7.191880
N 7.369860 4.743880 6.366380
N 9.145810 4.879400 6.953720
N 10.011900 5.957250 7.671830
N 10.097900 5.184230 7.091990
N 6.850920 1.956540 9.593130
N 6.479720 2.151400 8.712210
N 6.155980 1.238470 8.300950
N 8.157660 2.310090 8.913260
N 9.025290 2.610330 9.017490
N 8.950540 3.374390 8.399080
N 8.191550 3.827660 8.070040
N 7.882560 2.020180 9.748090
N 7.877290 1.532130 28.698100
N 7.301390 0.916714 28.209500
N 8.203210 2.382620 29.058800
N 7.055040 1.235330 29.797000
N 7.626570 1.985070 29.730000
N 7.584290 1.388540 30.627400
N 7.358860 0.970176 31.438200
N 7.818110 1.327060 32.869900
N 6.758660 2.920100 31.591100
N 7.281450 3.700860 31.447500
N 8.077650 3.258070 31.757400
N 9.518920 2.809950 32.784000
N 8.891720 3.190330 32.234600
N 11.404300 2.647220 32.905100
N 11.211500 7.052280 2.137680
N 10.207200 6.913250 1.926900
N 9.358490 7.115760 5.722230
N 9.092270 7.719760 6.356730
N 9.661150 6.810240 6.630560
N 10.396500 6.127860 6.734230
N 9.830500 7.203300 7.678700
N 9.637030 7.962170 7.132420
N 9.955390 7.709270 9.620940
N 9.332790 8.232180 9.070030
N 9.754840 8.085170 8.193190
N 6.254060 24.606200 4.126650
N 6.229090 25.599200 4.092750
N 6.538410 26.359500 4.552490
N 7.249320 26.844700 5.351150
N 7.826710 27.638800 5.565710
N 6.520650 27.246500 4.922890
N 6.884460 28.962300 1.325510
N 7.488550 28.796900 2.068420
N 9.057340 28.794200 2.081620
N 8.320870 28.997700 1.536330
N 9.632480 31.271300 1.660110
N 9.340630 30.320600 2.183240
N 10.096500 29.596300 2.081530
N 10.965800 30.315100 1.380200
N 10.567000 31.141000 1.373020
N 10.025600 30.292100 1.447910
N 11.446600 30.809000 2.145370
N 10.899400 29.908400 2.409030
N 8.058590 31.587900 1.115760
N 8.943820 31.945100 1.054530
N 8.523040 31.491100 1.967960
N 9.306890 32.089100 2.259040
N 9.541880 32.823800 1.554870
N 10.049400 32.097000 1.210450
N 10.621400 32.819400 1.569430
N 11.333500 31.729000 1.847180
N 11.167000 32.662900 2.355750
N 6.478360 29.228300 4.039030
N 9.238120 29.284300 2.864560
N 8.313310 29.342700 3.033750
N 9.270920 28.594400 3.651840
N 8.530790 29.211500 3.898610
N 10.154800 29.002600 3.156420
N 10.107100 28.655600 4.079680
N 6.564830 30.314100 3.613910
N 7.420640 29.972200 3.878130
N 7.186660 30.951600 4.174160
N 8.966850 30.243300 3.024840
N 9.196120 31.139600 2.575290
N 8.523210 31.071800 3.553550
N 8.472030 30.133700 3.804510
N 10.951300 29.484300 3.234400
N 11.114300 30.525800 3.153090
N 10.533800 30.360700 3.973890
N 6.515710 31.502800 3.546160
N 8.261730 31.883400 3.889190
N 8.426460 32.720500 3.554230
N 8.767860 31.958000 3.072390
N 9.008930 32.868700 2.623560
N 10.667500 31.324200 3.598190
N 11.202400 31.438400 2.790100
N 10.873700 32.287600 3.161300
N 10.350700 32.099300 4.039690
N 10.514000 33.055500 3.626210
N 6.182150 29.189200 5.064240
N 7.764040 28.646100 5.570180
N 6.939150 28.537200 5.054610
N 7.315570 29.184300 4.455910
N 6.529140 28.731100 5.984220
N 9.235350 29.176000 5.595140
N 8.216040 29.032000 4.821100
N 9.192900 28.774300 4.562390
N 9.938770 29.262500 4.999190
N 7.736440 30.299600 6.055080
N 6.131050 29.580200 5.899220
N 7.518060 30.756400 5.235550
N 7.867010 29.954200 4.716250
N 8.271640 29.534800 5.622900
N 9.622150 30.061100 5.680300
N 8.094810 30.899900 4.404800
N 10.622600 29.488200 4.333010
N 9.724090 31.087200 5.270070
N 10.082500 30.231700 4.788050
N 10.205300 31.154900 4.476090
N 7.500900 32.121300 6.067130
N 6.280560 32.315600 5.270890
N 6.897690 31.476100 5.363530
N 7.311830 32.375000 5.205300
N 7.744530 31.648300 4.846780
N 6.777420 31.784700 4.448010
N 9.375630 31.871300 5.777100
N 7.919520 32.631500 4.490510
N 9.461300 32.797300 5.433170
N 10.020300 32.867100 4.460700
N 10.569800 31.559700 5.549040
N 10.729500 32.588700 5.008100
N 11.442500 32.274100 5.577920
N 9.880340 31.975700 4.974240
N 7.418160 28.239900 6.413400
N 6.369420 29.180900 6.789670
N 7.051810 28.549700 7.278350
N 8.085230 28.765600 7.180940
N 8.477150 29.040700 6.334760
N 8.227440 27.791100 6.432830
N 8.369160 29.354700 7.896880
N 9.986890 29.434900 7.809610
N 7.588900 30.619300 6.943330
N 7.381350 31.059100 7.849990
N 6.166690 29.583000 7.631270
N 7.271670 31.062900 6.132420
N 8.954570 29.993200 6.315850
N 8.492260 30.855700 6.574080
N 8.202270 29.931600 6.987030
N 7.979840 30.328600 7.863380
N 9.342480 30.975200 6.196170
N 9.771310 30.101000 6.806300
N 10.609900 29.866200 7.240200
N 6.952850 31.540800 6.982900
N 6.280580 32.354200 7.060190
N 6.779370 31.824400 7.880590
N 6.593630 31.976400 6.205340
N 7.927580 31.575900 6.838550
N 9.103710 32.768300 6.331020
N 8.221800 32.674800 6.638990
N 8.831290 31.860600 6.640140
N 9.009900 32.370300 7.406030
N 6.752560 29.002100 8.213510
N 7.590670 28.497400 8.078560
N 7.589780 29.373200 8.606350
N 6.861910 28.871300 9.431300
N 9.248530 29.072300 8.266420
N 6.399120 29.582900 9.029830
N 7.717800 30.279000 8.879920
N 7.286010 31.202000 8.782570
N 6.885630 30.360900 9.341130
N 6.379990 31.236000 9.636210
N 6.666850 31.941300 8.840770
N 6.283610 32.651000 7.907880
N 6.574960 31.399700 10.563400
N 6.804540 32.108000 11.089500
N 9.314950 32.927900 27.055500
N 9.892220 32.144200 27.037700
N 7.813810 32.585000 27.844000
N 9.249450 32.798300 28.022600
N 8.618730 32.121000 27.943500
N 7.803510 32.967300 32.248000
N 11.693300 2.155270 1.320550
N 15.066200 3.735680 1.338750
N 14.912800 2.910890 0.848981
N 15.275800 4.281310 2.089800
N 15.708000 3.446970 2.393040
N 16.554300 3.194690 2.125170
N 12.876600 4.482610 1.961710
N 12.377300 4.356340 1.109840
N 13.258700 1.676640 4.142510
N 11.710600 0.831060 3.177470
N 11.607700 3.865170 3.722670
N 12.045900 4.774650 3.540590
N 12.608500 4.883720 2.805420
N 12.085200 5.571900 5.249810
N 12.990200 5.772390 5.323950
N 14.273300 6.034830 5.025460
N 14.846500 5.587960 5.651840
N 13.542800 5.601990 4.590810
N 15.143300 5.259610 6.474360
N 15.641300 5.569440 7.237270
N 15.141800 5.397290 8.757880
N 15.805200 6.065890 8.724750
N 14.915400 5.297780 9.719930
N 14.337100 4.623860 11.124700
N 14.925800 4.399970 10.375700
N 15.714900 4.854170 9.982790
N 13.798300 5.390880 12.378500
N 13.568200 4.972210 11.550300
N 13.236400 2.000520 32.541800
N 15.071700 2.228610 32.487400
N 14.111200 1.734600 32.707400
N 13.767900 2.293370 31.797100
N 13.549200 1.076680 33.028800
N 11.888500 4.174950 32.641800
N 14.604500 2.837820 31.945800
N 15.290400 6.206410 7.884630
N 14.808400 27.480000 3.930750
N 14.815400 27.493500 5.519260
N 14.379300 27.063800 4.742650
N 14.319400 27.305700 6.469100
N 15.238800 27.631400 6.358200
N 12.293700 31.683700 1.551500
N 12.796100 31.978400 0.791558
N 12.957800 29.246200 3.345410
N 11.729900 29.201600 3.657130
N 14.510700 28.355000 3.830330
N 14.383300 29.252300 4.067290
N 12.692300 30.800600 3.841460
N 11.768300 30.634800 3.827740
N 13.002900 30.181400 3.123490
N 13.724100 29.711000 3.593130
N 12.299700 32.596800 3.702090
N 12.861100 31.819300 4.206880
N 13.303000 33.042600 4.136370
N 13.768900 32.184200 4.025230
N 12.311300 27.869100 4.735380
N 12.239700 28.135200 5.696360
N 12.101100 28.763100 4.423640
N 12.122800 32.243300 4.607670
N 12.353900 32.170400 5.801900
N 12.914400 28.366900 6.350700
N 13.681100 27.958300 6.820900
N 13.071900 31.941100 6.276570
N 13.603500 32.489500 33.046500
N 17.941900 2.415260 1.648180
N 17.535200 1.659450 2.078230
N 16.919000 0.873875 1.894910
N 17.505400 3.327330 1.759030
N 16.935000 1.344480 2.736890
N 17.290500 32.537300 2.404550
O 1.289190 1.123650 6.726220
O 0.770234 1.935240 6.873680
O 29.741600 4.358270 3.850230
O 30.494900 4.538730 3.345780
O 31.277800 5.017030 3.002280
O 30.704900 5.771190 2.963190
O 30.288700 5.817180 3.798660
O 32.251900 1.232490 5.500610
O 33.036400 1.060580 5.973770
O 30.023200 3.827480 4.681050
O 31.858700 3.603630 5.849120
O 31.430900 2.795000 6.067170
O 29.544700 4.533310 5.176910
O 30.441300 4.648010 5.370310
O 31.378700 4.823450 5.520200
O 32.399700 2.041300 6.264520
O 31.154600 4.232140 6.172850
O 32.001000 2.709680 6.770090
O 29.216100 7.144890 1.362000
O 29.222700 7.247570 2.340350
O 29.082400 6.279560 0.981316
O 29.867400 7.822310 2.734940
O 30.669400 6.652480 3.648610
O 31.548300 7.027110 3.761620
O 30.144900 8.687260 2.812620
O 30.775100 9.408100 3.041500
O 31.192200 8.553070 3.175720
O 31.670800 8.253350 3.890510
O 31.324600 7.584060 4.500700
O 29.420200 6.149550 32.424900
O 0.811507 2.316180 7.870860
O 0.960296 2.975150 8.584150
O 1.450820 3.386560 7.921820
O 2.207860 3.916530 8.190850
O 1.569600 4.809020 8.008450
O 2.524600 4.764810 7.931730
O 1.200110 2.059620 10.229100
O 3.719320 1.703650 10.604700
O 4.409600 2.456580 10.562900
O 1.483060 3.428680 11.196900
O 1.006720 2.581380 10.970200
O 3.813040 1.578660 11.602200
O 4.131790 2.064930 12.401500
O 1.143040 3.587990 12.037500
O 2.135990 3.779660 12.056000
O 2.921570 4.389220 11.890500
O 3.404950 4.580880 12.666300
O 4.178650 2.304720 13.372800
O 4.047290 3.381970 14.703200
O 4.069780 4.143060 14.118100
O 4.537020 3.000820 13.992500
O 4.147730 4.700600 13.357600
O 32.563800 3.122960 7.807560
O 31.223500 1.592220 9.194530
O 30.972600 1.468360 8.280530
O 31.361200 2.345130 8.388910
O 32.697400 1.954600 9.400070
O 31.797600 2.251830 9.551680
O 31.638700 3.133450 7.939370
O 32.608400 2.036100 10.376600
O 4.985280 4.022860 8.319620
O 5.333550 4.276160 9.183390
O 5.071490 4.938190 8.049820
O 5.554520 5.617160 8.486260
O 2.464100 5.643960 9.849500
O 4.002610 5.778930 10.283300
O 4.394020 5.133640 9.730460
O 5.016900 4.379790 10.090100
O 2.590920 6.530190 7.288780
O 2.598610 6.142860 6.375370
O 5.537170 9.634040 7.319550
O 4.559460 9.521710 7.861320
O 5.814130 9.542330 6.432510
O 4.191050 10.293200 7.353740
O 4.678010 11.035200 6.994720
O 5.307940 10.586300 7.491150
O 3.003880 6.227510 8.146380
O 2.695320 6.161660 9.061900
O 4.792720 7.064840 8.843420
O 5.376840 6.539910 8.328160
O 5.668990 8.564210 9.133090
O 4.918660 7.960360 9.178860
O 5.446550 9.427920 8.321230
O 5.869680 9.738840 9.124800
O 2.215660 6.581370 10.115300
O 3.007770 6.935350 9.757780
O 3.191520 6.283210 10.508500
O 5.723980 8.711630 10.067900
O 5.886720 10.072200 10.019900
O 6.146780 9.406750 10.641800
O 1.754150 1.520890 10.957300
O 1.785320 1.789770 11.903800
O 1.697750 1.940440 12.850900
O 2.429980 1.793460 13.425600
O 2.289020 2.764750 13.594700
O 2.385780 2.725790 14.538500
O 1.278730 2.410700 16.557600
O 2.192570 2.959040 16.564200
O 3.096830 3.027660 16.092200
O 3.081110 3.006210 15.163300
O 0.967246 1.707670 17.175800
O 1.814240 2.611790 17.366700
O 1.109120 32.726700 10.677800
O 2.012000 33.072000 10.487200
O 32.860000 1.618730 18.013800
O 31.893500 0.769210 19.840100
O 32.571400 1.275200 18.902700
O 31.919100 1.660880 19.468900
O 30.434600 1.286480 22.122100
O 30.215000 3.077070 22.016000
O 30.400600 2.212240 22.288800
O 31.260500 3.783870 22.617900
O 30.319600 3.884290 22.449500
O 32.666900 32.652500 10.156600
O 31.184500 31.479200 20.101100
O 31.714200 32.246300 20.172000
O 31.165300 32.264400 21.589100
O 30.812600 32.062000 20.766900
O 30.372200 32.778600 21.766200
O 31.133700 33.032300 22.303700
O 0.887638 5.405550 13.087300
O 1.727470 5.806430 12.751400
O 0.889067 6.372060 8.328800
O 1.869620 6.704340 12.933300
O 2.439830 7.591450 11.804000
O 3.742830 6.668110 12.362200
O 3.358910 7.245900 11.710600
O 2.814610 6.458050 12.366900
O 2.760030 9.403010 12.401200
O 2.517160 8.457530 12.193400
O 2.298260 10.193600 12.098400
O 2.711210 6.386800 13.318000
O 31.696500 5.924130 5.675710
O 32.755700 5.819630 9.179940
O 32.187700 5.011380 9.076500
O 32.259600 5.328540 9.980480
O 31.772100 5.746720 10.626700
O 32.530000 5.192740 12.472800
O 32.010400 6.020470 12.219700
O 31.124600 6.653750 5.667080
O 30.519700 6.506030 6.415530
O 31.180900 7.044210 6.829760
O 31.503500 6.366670 7.424100
O 32.574200 6.760390 8.922920
O 31.700500 6.896720 8.178770
O 32.319100 6.160770 8.095240
O 31.409200 6.604260 10.460500
O 32.207400 7.122520 11.168400
O 31.459000 6.590680 11.450900
O 32.211500 6.986680 12.143200
O 5.714850 5.318700 12.285200
O 5.286320 4.554060 12.618100
O 5.925330 5.625060 13.380800
O 5.345850 4.869110 13.513800
O 5.992030 4.945370 16.280000
O 5.838020 5.375420 17.185900
O 4.092440 6.455510 14.738000
O 4.326670 7.313750 14.432600
O 3.653630 7.174950 15.194500
O 4.188620 7.800310 16.830800
O 4.065300 7.076060 16.107700
O 5.123200 7.673400 16.737400
O 5.509070 6.239510 17.425500
O 5.706800 7.207150 17.342800
O 6.737650 3.612350 12.814200
O 6.527530 3.577210 11.875900
O 6.217500 4.470360 11.927200
O 6.529180 5.369720 11.819900
O 6.930290 3.094480 13.595500
O 7.500840 3.135580 14.393700
O 8.420590 3.161210 14.642200
O 6.303050 5.920210 14.205900
O 6.462790 5.025890 14.559900
O 8.849410 2.169740 16.461100
O 8.416490 2.006840 15.636900
O 9.659470 2.547770 16.766100
O 8.087870 2.967880 15.491300
O 10.125100 3.380810 16.888100
O 6.539140 5.073830 15.530800
O 9.494350 3.287410 17.655500
C 2.080290 1.783100 14.825500
C 2.669540 1.010100 14.879200
C 1.350180 1.558840 15.492600
C 1.196960 4.609820 17.841400
C 1.926070 4.175990 19.234500
C 1.260120 4.680780 18.804100
C 1.955900 5.086540 19.510900
C 2.894140 4.947450 19.532100
C 2.673590 5.560570 20.263700
C 3.609550 5.420720 20.464500
C 5.422600 5.497420 19.743900
C 5.973370 4.532630 19.289500
C 5.302060 5.115430 18.859300
C 4.378680 5.828670 20.900800
C 4.960140 5.123900 20.521000
C 5.558830 4.276730 23.199600
C 5.642080 4.935700 22.545100
C 2.728030 10.401600 9.082380
C 1.469730 9.668670 10.863900
C 2.296840 9.393020 10.402500
C 1.100740 8.914070 11.243100
C 2.311340 10.893200 9.771660
C 2.839960 10.031800 9.947190
C 1.171090 8.835060 12.969100
C 0.730115 8.915770 12.116000
C 1.971640 12.708900 10.282900
C 2.876960 12.603200 9.942640
C 2.843630 11.650300 9.952630
C 0.894596 13.506200 10.291700
C 1.912510 13.706000 10.471000
C 1.180850 14.104500 10.916600
C 0.790798 31.224800 8.102370
C 1.560280 30.939500 8.585730
C 2.554770 31.152600 8.979490
C 1.780560 31.577400 9.237120
C 2.687890 33.061500 14.026700
C 2.750000 32.170000 14.238300
C 0.945772 32.564000 15.977600
C 2.422330 32.170200 15.140000
C 1.811830 32.952900 15.835300
C 6.386390 5.397640 19.348500
C 6.901050 5.021450 20.115300
C 7.260580 5.507250 20.893700
C 7.645680 5.917430 21.713700
C 7.069660 5.354430 22.193400
C 6.572840 4.960880 22.900800
C 21.993800 4.047910 9.382980
C 21.095800 4.435230 9.344740
C 22.002400 5.026850 9.212640
C 21.745500 4.604360 11.024100
C 21.755800 5.050060 10.167500
C 20.830200 4.659260 10.265300
C 22.128000 4.378780 12.432700
C 22.085800 1.917920 14.163300
C 21.097200 2.163470 14.272700
C 19.271600 2.825950 13.355900
C 19.854800 2.866950 14.518100
C 19.688500 3.490080 13.834200
C 20.670700 2.970870 14.061500
C 21.752600 7.052440 8.964260
C 22.164400 7.036210 10.649700
C 22.206600 7.266660 9.756350
C 27.279300 5.389090 2.626030
C 25.072500 5.405350 4.979870
C 24.716800 4.965550 5.746490
C 23.759000 5.485380 7.021770
C 25.038100 5.211610 7.734490
C 24.205600 4.799460 6.568540
C 24.228200 5.738490 7.864450
C 25.180100 3.651660 9.077150
C 25.225400 2.763170 9.364480
C 22.531600 5.700440 8.765860
C 25.797000 4.688540 8.005080
C 25.087900 4.393830 8.532960
C 27.457600 5.675260 8.547030
C 25.844500 1.687130 10.721800
C 26.011100 2.502970 11.241200
C 26.679200 2.200090 10.658200
C 27.669500 2.474720 10.804300
C 25.575600 2.591390 10.294500
C 27.671200 4.359330 10.792100
C 26.121400 1.673940 12.875600
C 26.763100 0.994759 12.942300
C 27.478800 1.634170 12.358600
C 26.738600 2.318220 12.249200
C 27.669800 0.758767 12.941000
C 27.391400 2.834380 11.692400
C 26.523000 2.799210 13.038300
C 26.708700 3.274150 12.188400
C 26.970600 3.603930 13.244600
C 27.536000 3.700180 12.431300
C 22.528900 4.420720 11.589400
C 27.551100 5.517200 12.549200
C 26.642100 5.147350 12.536600
C 27.272500 4.528140 12.834400
C 23.007100 1.092760 13.714500
C 23.041200 1.962370 14.237100
C 25.347000 0.977660 13.608300
C 25.857600 2.258630 14.623400
C 26.117200 1.733180 13.838300
C 26.378000 1.222410 14.726500
C 27.369900 1.107570 15.054000
C 26.929500 1.962970 14.532200
C 25.798600 4.013420 14.689400
C 25.500800 3.120950 14.530700
C 26.614900 2.750790 14.124800
C 27.531000 3.093440 13.805800
C 22.885800 5.179350 13.872800
C 23.686700 5.061220 13.398600
C 22.381900 4.595420 13.352300
C 24.336700 5.699160 13.319500
C 27.662900 5.163310 14.780600
C 26.763800 0.817028 15.693500
C 26.870400 3.349690 16.210000
C 27.287500 2.539610 16.578500
C 27.653300 3.613440 15.756600
C 25.765600 4.626370 15.367400
C 25.110600 5.368490 15.203400
C 26.761800 5.447540 15.365400
C 26.754300 5.257700 16.433200
C 26.366100 4.403910 16.269200
C 26.868300 4.528510 15.536700
C 27.337200 1.047120 17.506100
C 27.664400 1.924060 17.336100
C 26.608700 3.781640 17.059700
C 27.179500 3.695150 17.896300
C 26.544000 2.819980 17.074900
C 27.493900 2.804450 17.739400
C 26.787600 4.660980 17.348200
C 27.581400 5.361660 16.960900
C 27.675700 4.452000 17.580400
C 26.167400 4.175640 20.384000
C 26.591600 3.585370 19.790900
C 25.751700 6.019140 20.205000
C 26.577100 5.792310 19.828000
C 26.261000 3.457230 21.265300
C 26.961100 3.351760 20.622000
C 26.457200 3.350590 22.147000
C 25.405500 5.739670 21.021200
C 26.051300 5.152660 20.600600
C 27.525000 3.859470 23.296000
C 27.306900 3.305170 22.544600
C 27.341100 4.829880 23.382400
C 27.158700 7.132300 4.111190
C 24.914900 6.328730 5.189190
C 25.597900 6.169680 4.481330
C 26.539200 6.411630 4.379580
C 27.315900 6.770570 4.994450
C 26.008400 7.626080 5.987260
C 26.474400 8.239890 5.480750
C 27.058200 8.956050 5.132890
C 26.688100 9.058960 6.013490
C 26.783800 10.885200 5.311610
C 26.338200 10.707100 6.089560
C 26.678900 7.167870 6.501960
C 26.605800 7.438710 7.444320
C 26.295400 9.799990 6.457570
C 22.328300 6.597300 8.349250
C 27.202400 7.168160 8.106660
C 27.437700 6.603190 8.850020
C 27.570400 7.762990 10.811300
C 24.724600 6.557710 13.059300
C 27.664400 8.303870 12.323700
C 25.241100 6.554470 13.863700
C 24.834900 6.530680 14.734000
C 25.694100 6.194400 15.091300
C 27.423700 6.803450 13.907400
C 27.319300 6.114050 16.392400
C 27.395400 6.187300 15.431600
C 26.397700 6.697530 19.540200
C 26.610200 7.580000 19.818200
C 27.114800 8.182930 19.174000
C 27.285200 9.199990 19.271000
C 26.466500 11.774000 5.369320
C 26.793600 13.097200 4.984620
C 26.239700 12.654800 5.677270
C 26.235500 13.737300 4.538160
C 24.684700 32.723500 13.182200
C 23.828700 33.040600 13.454600
C 27.018000 32.441900 13.545700
C 26.955800 31.785900 14.263400
C 26.687400 32.746700 14.636700
C 26.248100 33.036900 13.621600
C 24.800100 29.415500 15.116600
C 25.649500 28.927000 15.128600
C 27.516600 28.780200 15.721300
C 26.248400 28.456800 15.751800
C 26.567600 29.347200 15.491700
C 24.580300 30.233900 15.567500
C 24.539100 31.187100 15.484600
C 27.291900 29.584000 16.125100
C 22.687000 32.910100 15.512900
C 23.098500 32.670700 16.333400
C 24.055600 32.746700 16.655300
C 25.475800 31.314600 15.480000
C 24.995100 32.189700 15.466800
C 24.672400 32.023300 16.400800
C 27.230100 32.471700 15.353400
C 26.206800 30.945100 17.652300
C 26.914500 31.285800 17.125300
C 27.419200 32.023400 17.549000
C 27.901700 5.201460 1.916750
C 28.013200 5.751490 3.523120
C 27.716100 4.847310 3.218710
C 28.413900 4.945670 9.401360
C 28.438100 5.644480 8.755760
C 30.707100 1.643220 11.212700
C 29.573500 2.256490 11.037300
C 31.306700 2.340300 11.448000
C 28.646300 2.716190 11.219500
C 29.415400 3.268870 10.871900
C 28.081500 3.799120 11.493100
C 30.114200 3.501040 11.430800
C 31.086400 3.380140 11.106000
C 30.423700 2.693220 10.884200
C 28.496000 4.860900 10.378300
C 29.285200 0.973156 12.152700
C 28.374400 1.231060 12.229900
C 28.024500 2.107580 11.757600
C 28.920800 1.853930 11.658200
C 29.844300 1.495100 11.563600
C 30.212800 0.741755 11.972800
C 31.795600 2.134110 12.387600
C 31.793700 1.390960 11.705500
C 31.911000 1.150240 12.616900
C 29.108800 3.263930 13.012500
C 28.680700 4.021750 12.490700
C 28.214400 3.519090 13.282900
C 28.988400 4.004310 11.569700
C 30.892700 2.577980 12.903100
C 29.659700 3.851690 12.515800
C 30.469200 3.374730 12.281500
C 29.986400 2.953910 12.919400
C 31.395300 2.995990 12.235100
C 28.373300 5.963370 12.396900
C 27.862600 2.007880 14.277300
C 28.147000 1.223420 14.657600
C 28.767800 1.807280 14.063900
C 29.357500 2.336010 13.578600
C 29.063300 0.798791 14.546000
C 29.666100 1.439980 13.983700
C 30.649800 1.089090 13.820700
C 30.299300 1.926610 13.452600
C 32.870900 0.832894 14.392700
C 31.279000 1.612380 13.322700
C 28.392100 2.672270 13.639900
C 29.053400 4.163840 14.842900
C 31.066000 3.782800 14.377000
C 30.456400 3.186870 14.991900
C 31.278100 2.744210 14.900000
C 30.176600 4.014990 14.505200
C 31.525200 2.514210 13.568600
C 32.014800 3.307190 14.674500
C 31.985000 4.222380 14.623200
C 28.590200 4.979350 14.591800
C 28.734800 5.694870 13.976800
C 29.541600 4.871940 14.306900
C 30.802100 5.537380 13.586500
C 29.738100 5.695430 13.842800
C 30.546300 4.724560 13.974100
C 31.386700 5.601580 14.445800
C 31.612200 4.768750 13.912800
C 32.070700 5.161730 14.902600
C 28.431700 1.095220 15.723400
C 29.187800 1.287610 16.683300
C 28.519000 2.048460 16.297300
C 27.728800 1.496610 16.201600
C 30.068700 1.557360 15.280500
C 29.520700 1.952820 15.969200
C 30.722800 1.466490 16.253300
C 31.016500 2.000870 15.465700
C 31.402500 2.088280 16.654800
C 31.838900 2.175640 15.825900
C 32.874600 1.272450 15.168500
C 28.149700 2.872480 16.061600
C 28.554400 3.558850 15.413200
C 29.007200 2.730370 15.661400
C 29.563300 3.430710 15.138900
C 30.107600 2.516440 15.537500
C 30.969400 3.863950 16.661300
C 32.363000 3.918410 15.546300
C 31.870100 3.733850 16.397900
C 32.129000 3.022720 15.728200
C 27.847400 4.361490 15.221600
C 29.390600 5.819980 16.025500
C 28.558000 5.636010 16.421600
C 29.344200 4.997560 16.628900
C 31.022600 4.696990 16.094800
C 30.204000 4.557710 16.534700
C 30.031900 5.697500 16.740000
C 30.379400 5.447900 15.900300
C 31.228000 5.611480 15.528200
C 31.846900 4.780140 15.742400
C 28.582000 1.729480 17.406800
C 28.319100 2.254810 18.130900
C 30.231800 1.797720 18.410700
C 29.514600 1.621930 17.831500
C 30.846000 1.799740 17.519600
C 31.093000 0.859929 17.559200
C 30.064900 1.474220 16.953900