475
Atoms. Timestep: 0
H 6.091160 30.933400 4.506950
H 5.861960 31.352100 5.628290
H 5.528220 31.744900 4.771300
H 5.845330 31.354200 5.646470
H 5.124340 32.341600 5.514740
H 5.103530 32.340100 5.529660
H 5.506580 31.740200 4.788380
H 5.587050 31.770300 6.518370
H 5.601630 31.763600 6.501760
H 5.007540 32.567900 6.518240
H 4.990020 32.572400 6.532170
H 5.925790 31.384300 7.376460
H 5.935370 31.370900 7.358760
H 5.196450 32.374900 7.527280
H 5.209110 32.363300 7.512910
H 5.667510 31.800400 8.248360
H 5.675030 31.782400 8.232230
H 9.658660 1.140820 3.198920
H 9.649750 1.155860 3.199880
H 9.116740 1.326260 4.070930
H 9.129160 1.321050 4.070150
H 8.655250 0.968647 4.920510
H 8.647400 0.964990 4.920100
H 10.341300 30.878100 2.458640
H 10.309200 30.851400 2.462340
H 10.356700 31.895800 2.269020
H 10.340000 31.868400 2.270650
H 9.677230 30.878500 3.528100
H 9.592040 29.720700 3.907560
H 9.543970 29.708400 3.914320
H 9.707880 30.893500 3.523820
H 10.061400 30.082000 3.058390
H 10.017900 30.060800 3.063970
H 9.336570 31.696200 3.992240
H 9.354390 31.704900 3.989250
H 9.497610 32.600000 3.595580
H 9.502070 32.611900 3.594560
H 9.838270 31.782300 3.131440
H 9.855570 31.800400 3.129130
H 10.103600 32.862400 2.540330
H 10.101800 32.839200 2.540260
H 7.171700 29.561400 5.481850
H 7.182300 29.555400 5.457660
H 6.716380 30.136300 4.738340
H 6.700640 30.135900 4.760770
H 6.456040 30.547800 5.611810
H 6.442360 30.552000 5.632670
H 6.110940 30.937700 4.487120
H 8.605150 30.547500 5.438160
H 9.059020 29.891100 4.778610
H 9.206710 30.798000 4.383930
H 9.175520 30.792400 4.388890
H 9.014480 29.888600 4.785550
H 8.571290 30.553200 5.444210
H 8.853210 31.609500 4.849360
H 9.000900 32.516400 4.454670
H 8.834860 31.610100 4.853030
H 8.995910 32.513900 4.456370
H 8.367500 32.531800 5.519850
H 8.363890 32.541000 5.522130
H 8.333160 31.524000 5.713820
H 8.352040 31.514100 5.709470
H 7.378140 29.363800 6.476960
H 7.383870 29.350800 6.452330
H 6.195710 30.959300 6.485280
H 6.789790 30.155100 6.468800
H 6.781110 30.166000 6.490760
H 7.267070 29.577100 7.455820
H 6.529450 30.566600 7.342280
H 6.522830 30.582100 7.362660
H 7.264620 29.596200 7.479470
H 6.184080 30.968100 6.504570
H 6.863200 30.173800 8.199270
H 6.861570 30.196100 8.220750
H 6.276990 31.002900 8.502180
H 6.280470 30.981000 8.483450
H 27.606200 2.670750 12.770500
H 27.603900 2.682840 12.784300
H 27.174400 1.973110 13.403700
H 27.179300 1.967240 13.398800
H 27.247600 1.094340 13.946200
H 27.255700 1.095540 13.952100
H 27.484200 4.391910 16.480000
H 27.473100 4.402270 16.488500
H 29.050600 1.342250 13.116600
H 29.057600 1.339520 13.119000
H 28.735800 2.187800 12.685300
H 28.739800 2.178530 12.677300
H 28.112500 1.657680 13.260200
H 28.118500 1.653380 13.258900
H 29.673900 1.872380 12.541800
H 29.678900 1.864670 12.537400
H 30.859500 1.583500 12.285800
H 30.853500 1.590160 12.287100
H 29.996700 1.025660 12.979100
H 29.988600 1.026820 12.973100
H 30.297300 2.402500 11.966900
H 30.300200 2.389820 11.955700
H 28.421900 3.017550 12.235500
H 28.421100 3.033360 12.253900
H 29.408000 2.914720 11.937300
H 29.406900 2.930750 11.954700
H 28.436300 0.814368 13.700600
H 28.427200 0.812127 13.691500
H 29.371900 5.815310 14.927200
H 29.352900 5.819800 14.920800
H 30.326900 5.436830 14.798300
H 30.307300 5.440910 14.788600
H 31.030700 4.699000 14.977600
H 31.012000 4.703850 14.967200
H 30.357300 2.458400 16.567200
H 30.346900 2.469380 16.568800
H 28.910000 3.435830 16.528700
H 28.568900 3.794070 16.434000
H 28.424400 4.253230 16.218600
H 29.375800 4.104190 15.948600
H 29.389500 4.095710 15.948500
H 29.398300 3.235910 16.459100
H 29.861300 3.286790 16.258700
H 30.218900 3.537560 15.973700
H 31.048300 2.979400 15.998800
H 31.034900 2.988230 15.995000
H 30.327100 3.955150 15.678700
H 31.278400 3.806110 15.408800
H 31.294800 3.799510 15.417000
H 28.890200 4.921590 15.638500
H 27.730700 5.212030 15.898200
H 28.560100 4.653870 15.923300
H 27.716600 5.220140 15.902300
H 28.404600 5.739000 15.328400
H 28.421600 5.733030 15.329800
H 29.380700 4.955510 15.437900
H 29.841500 4.772550 15.368600
H 30.210100 4.397360 15.463000
H 29.398600 2.388570 16.976500
H 29.407100 2.376110 16.969800
H 28.444300 2.767470 17.108700
H 28.452100 2.754600 17.098700
H 27.739500 3.504530 16.930100
H 27.748300 3.492430 16.919400
H 30.926700 33.074300 12.829600
H 30.935900 33.074700 12.839200
H 27.815000 32.652100 14.282200
H 28.694200 32.116700 14.278500
H 28.707200 32.127200 14.300600
H 29.365300 32.859600 13.548000
H 29.375400 32.863400 13.560700
H 27.803800 32.644900 14.266400
H 29.693300 32.024400 14.002400
H 29.680000 32.014100 13.979400
H 30.497200 32.364600 13.449000
H 30.509000 32.371200 13.467500
H 0.894868 15.117500 4.172070
H 0.909206 15.109700 4.160190
H 1.672820 13.970800 5.616310
H 1.538650 14.606000 4.809830
H 1.532020 14.613200 4.813570
H 1.675840 13.972800 5.614330
H 1.275750 13.374300 6.363530
H 1.287800 13.368200 6.359760
H 5.958180 15.532600 9.421720
H 5.970380 16.191500 8.623270
H 7.985870 12.980700 7.346700
H 7.736980 14.552200 6.134760
H 7.357550 14.569100 7.059870
H 7.482000 13.783400 7.665840
H 7.998070 13.639600 6.548250
H 6.252600 16.420300 7.653780
H 7.272550 15.473800 6.217050
H 6.729230 16.157600 6.773050
H 6.853680 15.371800 7.379010
H 7.703650 12.751900 8.316180
H 7.227020 13.014600 9.196920
H 7.102570 13.800300 8.590950
H 6.598700 14.603100 8.910090
H 6.978130 14.586100 7.984980
H 6.474250 15.388800 8.304120
H 6.683700 13.698400 9.752920
H 6.219270 14.620000 9.835200
H 31.272800 15.250500 3.965630
H 31.289500 15.253900 3.939060
H 32.316100 15.346800 3.841470
H 32.298000 15.350800 3.861700
H 30.204700 13.624100 5.980520
H 30.212700 13.598500 6.002210
H 30.456900 14.843500 4.456020
H 30.467600 14.855800 4.426820
H 30.070600 14.259300 5.174050
H 30.068900 14.238800 5.201460
H 31.061900 14.187200 5.284610
H 31.061300 14.172300 5.304670
H 33.044400 14.042900 5.505740
H 33.046300 14.039300 5.511110
H 31.451800 13.600000 6.025800
H 31.443700 13.617700 6.012670
H 31.663300 14.678200 4.686760
H 31.671300 14.684500 4.667120
H 32.662600 14.612300 4.777690
H 32.655800 14.611700 4.789980
H 32.053800 14.105800 5.407890
H 32.053200 14.115000 5.395180
H 30.834200 13.120400 6.630160
H 30.849800 13.094200 6.643710
H 31.809600 12.860900 6.954080
H 31.790300 12.883300 6.948880
H 32.816800 12.976200 6.851290
H 32.834800 12.961200 6.850150
H 32.435000 13.545600 6.123230
H 32.444300 13.533500 6.129020
H 10.974800 11.047700 23.502900
H 10.940900 10.048800 23.773000
H 9.951300 8.989120 25.150700
H 10.566300 9.295330 24.376100
H 9.465060 10.088400 25.452500
H 9.669330 10.964600 25.015900
H 9.016600 10.923100 25.772400
H 10.117800 10.130000 24.696000
H 10.322100 11.006200 24.259400
H 9.260790 9.212250 25.889100
H 8.679750 9.904920 26.393600
H 8.363870 10.881500 26.528900
H 10.658900 12.024300 23.638200
H 9.220870 11.799300 25.335700
H 9.387360 12.940100 24.881000
H 8.772410 12.633900 25.655600
H 9.873600 11.840800 24.579200
H 10.077900 12.717000 24.142600
H 8.397780 11.880400 26.258800
H 1.811720 23.254600 10.059600
H 0.918149 23.408100 10.559400
H 1.581250 23.990300 11.029900
H 2.821220 23.454200 9.945810
H 2.532780 24.013400 10.723100
H 3.676140 23.953600 10.248600
H 2.244350 24.572600 11.500400
H 3.195880 24.595700 11.193600
H 4.147420 24.618700 10.886800
H 1.292820 24.549500 11.807200
H 0.812559 25.191600 12.752300
H 1.955920 25.131700 12.277800
H 1.667480 25.690900 13.055100
H 4.108770 25.271500 11.689500
H 2.907450 25.154800 11.970900
H 3.570550 25.737100 12.441400
H 2.676980 25.890600 12.941300
H 32.742800 23.873600 11.311400
H 32.704200 24.526400 12.114100
H 0.760608 20.375800 21.993700
H 0.771707 20.401800 22.028800
H 0.869189 21.051400 21.216800
H 0.877908 21.075100 21.249500
H 22.093700 18.476800 19.617900
H 21.937300 20.325300 18.870200
H 21.836300 19.313500 19.065100
H 22.640500 18.039400 20.380500
H 22.505000 19.640200 19.733000
H 22.907200 19.003200 20.390700
H 23.173800 19.967000 20.400900
H 22.771700 20.604000 19.743200
H 22.369600 21.241000 19.085500
H 23.017400 21.815400 19.653200
H 23.440500 20.930700 20.411100
H 23.707100 21.894500 20.421300
H 23.330200 18.118500 21.148600
H 23.978000 18.692900 21.716300
H 23.575900 19.329900 21.058600
H 23.842600 20.293700 21.068800
H 24.410300 19.608600 21.931600
H 24.511300 20.620400 21.736700
H 24.253900 21.457100 21.183900
H 28.632200 18.174500 14.496500
H 28.593300 18.173800 14.497400
H 28.248300 20.118000 14.221100
H 28.235700 20.121900 14.218700
H 28.279500 19.085300 14.153300
H 28.251900 19.088700 14.153500
H 28.879500 19.312600 14.920300
H 28.850700 19.826000 14.949600
H 29.029600 18.851900 15.089000
H 28.547000 20.995700 14.681900
H 28.549100 20.996400 14.675600
H 29.168600 17.622400 15.158400
H 29.212000 17.629500 15.158800
H 29.345800 18.584600 15.423100
H 29.644600 18.556000 15.819900
H 30.382500 18.063700 16.685400
H 29.863500 17.596300 15.962800
H 29.823500 17.582000 15.959200
H 30.412100 18.083900 16.693000
H 29.465800 19.530100 15.680500
H 29.479500 19.539800 15.687400
H 29.013300 20.267700 15.184700
H 30.079600 19.767000 16.454500
H 30.080900 19.234200 16.411400
H 29.945800 18.811800 16.190200
H 29.902100 20.208200 16.272100
H 29.287000 20.504100 15.541200
H 29.095600 21.483200 15.412100
H 29.108200 21.478100 15.401800
H 30.338300 20.886300 16.863600
H 29.763100 21.437800 16.202700
H 30.326800 20.905100 16.878400
H 29.613300 20.494900 15.951700
H 29.747000 21.450100 16.216100
H 30.710800 18.961600 17.153700
H 30.696000 18.938300 17.142300
H 30.679800 19.971400 17.207500
H 30.679600 19.994200 17.221600
H 32.996900 21.959600 20.778900
H 32.999000 21.979000 20.806300
H 32.590600 21.485400 21.849400
H 32.470400 21.957200 21.655000
H 32.538200 21.168600 22.266200
H 32.708800 20.139400 22.935300
H 32.700200 20.113800 22.901500
H 32.075700 20.335500 23.696900
H 32.077500 20.358200 23.726100
H 31.413300 21.913700 23.352300
H 32.324700 21.016600 22.691800
H 31.949100 21.919400 22.482000
H 31.941800 21.935400 22.503700
H 32.009700 21.146800 23.114900
H 31.683100 21.450500 23.324400
H 30.901300 21.879100 24.185200
H 30.884700 21.891900 24.201000
H 31.417200 20.981700 24.166700
H 31.409800 20.999700 24.189400
H 31.197900 23.724900 22.062600
H 31.174800 23.731500 22.072000
H 32.215000 22.388200 21.639700
H 31.806200 23.512600 21.281200
H 32.480900 22.857000 20.797300
H 32.473800 22.871100 20.817900
H 31.822500 23.503200 21.267200
H 31.874000 22.724000 21.892400
H 31.573500 22.822200 22.272300
H 30.774600 23.462900 22.970400
H 30.749000 23.469100 22.978500
H 30.642800 22.795700 23.757800
H 30.666000 22.787300 23.747300
H 31.345400 22.702200 22.741100
H 31.307600 22.353300 23.114700
H 21.891100 25.393800 2.242490
H 21.342200 27.453200 1.913440
H 21.317300 27.471100 1.891350
H 21.850300 25.056800 3.220570
H 22.243500 25.033600 4.178050
H 20.755400 26.569800 3.586080
H 20.786300 26.549700 3.609030
H 21.871900 27.591200 2.750400
H 21.593900 27.139400 3.598200
H 20.857400 26.888900 2.633430
H 20.828100 26.910300 2.611070
H 21.605300 27.321400 3.087460
H 21.750600 27.136700 4.059490
H 21.820600 26.831200 5.258580
H 21.845700 26.825600 5.282950
H 22.123600 27.277400 4.435160
H 21.148100 26.526600 4.578830
H 21.118700 26.540800 4.555140
H 22.092000 28.102000 1.619780
H 22.110900 28.091500 1.641970
H 22.237300 27.917300 2.591820
H 22.354900 25.954400 1.505890
H 23.117400 26.588200 1.208130
H 23.974400 27.125600 1.429010
H 23.722100 26.676800 2.286360
H 22.912300 26.091200 2.324790
H 24.696100 27.422400 2.109340
H 22.660100 25.642400 3.182130
H 23.217500 25.779200 4.001040
H 23.469800 26.228000 3.143700
H 24.027300 26.364800 3.962600
H 25.048500 27.062200 4.044900
H 24.279500 26.813600 3.105260
H 25.089300 27.399200 3.066820
H 23.822200 25.867800 5.079260
H 22.965200 25.330500 4.858380
H 22.527900 27.547900 4.535880
H 22.673100 27.363200 5.507920
H 22.692200 27.366800 5.532750
H 24.584700 26.501700 4.781500
H 22.944500 28.634000 1.869120
H 22.957400 28.632600 1.891760
H 22.679500 28.180900 2.739560
H 23.655000 28.931700 2.595890
H 23.646400 28.924400 2.572560
H 23.209100 28.318800 3.576520
H 23.014500 28.328500 3.068210
H 24.009700 28.895400 3.541620
H 24.016700 28.908500 3.565680
H 22.382600 27.732600 3.563850
H 23.159800 28.143800 4.040240
H 22.401500 27.729100 3.587360
H 22.931200 27.867100 4.424320
H 23.945700 28.569400 4.541280
H 23.937000 28.554900 4.516630
H 23.447800 27.994100 5.236350
H 23.460900 28.005100 5.261280
H 14.680100 29.415500 16.866900
H 14.667700 29.388800 16.863000
H 12.058900 29.249000 17.916700
H 12.052300 29.231100 17.928500
H 12.860900 28.807400 17.433400
H 12.849100 28.787300 17.438600
H 13.806400 28.845100 17.048600
H 13.820300 28.868300 17.049100
H 12.538800 30.379000 18.086500
H 12.538700 30.358100 18.099300
H 13.154700 29.745200 17.618300
H 13.148600 29.723100 17.625100
H 11.629200 30.074900 18.369700
H 11.629400 30.057400 18.387100
H 11.687000 31.063700 18.670900
H 11.693900 31.044900 18.691500
H 14.064300 30.049300 17.335100
H 14.057900 30.023800 17.337300
H 13.448100 30.658800 17.811600
H 13.448500 30.683100 17.803300
H 14.358100 30.987200 17.520100
H 14.357400 30.959500 17.523800
H 15.266700 31.260200 17.236000
H 15.209900 30.302400 16.935700
H 15.202200 30.272800 16.931600
H 12.832600 31.316800 18.271400
H 12.838200 31.293900 18.285800
H 13.076600 32.497800 18.557400
H 13.089700 32.472600 18.574600
H 14.047000 32.530300 18.184600
H 13.742300 31.620900 17.988200
H 13.747500 31.594600 17.998100
H 14.036000 32.558800 18.173200
H 14.843800 32.086600 17.694600
H 14.838000 32.117100 17.689800
H 15.267700 31.291200 17.236900
H 12.228400 31.928900 18.760100
H 12.216800 31.950600 18.739600
H 20.460700 4.933100 19.871000
H 20.993800 5.568210 20.430100
H 20.806800 5.648480 19.207500
H 20.400200 4.558070 20.834200
H 20.641600 4.623880 21.838800
H 21.617400 6.048710 21.972900
H 21.084300 5.413600 21.413900
H 21.120300 5.112900 22.615700
H 21.707900 5.894100 22.956800
H 21.345900 6.512530 19.021300
H 21.436400 6.357920 20.005200
H 21.933600 7.293730 19.362400
H 21.526900 6.203310 20.989100
H 22.060100 6.838420 21.548100
H 21.969600 6.993030 20.564200
H 22.247000 6.758150 22.770600
H 22.412200 7.782750 20.139400
H 22.593200 7.473530 22.107100
H 22.653600 7.848560 21.144000
H 19.909400 1.072590 25.790700
H 20.717400 1.396260 25.298400
H 18.764400 1.253890 27.077800
H 19.256400 2.288850 27.549900
H 19.572500 1.577560 26.585500
H 20.043600 2.406210 26.887900
H 19.101300 0.748915 26.283100
H 20.578400 2.079500 26.063800
H 18.427500 1.758860 27.872500
H 17.779300 0.958266 27.769200
H 18.159000 31.454500 25.678300
H 19.775100 32.101900 24.693600
H 18.946300 31.571900 25.016200
H 19.438200 32.606900 25.488300
H 20.423400 32.902500 24.796900
H 17.624200 31.781200 26.502400
H 18.630200 32.283200 25.980700
H 17.485200 32.464500 27.267700
H 18.293300 32.788200 26.775400
475
Atoms. Timestep: 0
A 6.091160 30.933400 4.506950
A 5.861960 31.352100 5.628290
A 5.528220 31.744900 4.771300
A 5.845330 31.354200 5.646470
A 5.124340 32.341600 5.514740
A 5.103530 32.340100 5.529660
A 5.506580 31.740200 4.788380
A 5.587050 31.770300 6.518370
A 5.601630 31.763600 6.501760
A 5.007540 32.567900 6.518240
A 4.990020 32.572400 6.532170
A 5.925790 31.384300 7.376460
A 5.935370 31.370900 7.358760
A 5.196450 32.374900 7.527280
A 5.209110 32.363300 7.512910
A 5.667510 31.800400 8.248360
A 5.675030 31.782400 8.232230
A 9.658660 1.140820 3.198920
A 9.649750 1.155860 3.199880
A 9.116740 1.326260 4.070930
A 9.129160 1.321050 4.070150
A 8.655250 0.968647 4.920510
A 8.647400 0.964990 4.920100
A 10.341300 30.878100 2.458640
A 10.309200 30.851400 2.462340
A 10.356700 31.895800 2.269020
A 10.340000 31.868400 2.270650
A 9.677230 30.878500 3.528100
A 9.592040 29.720700 3.907560
A 9.543970 29.708400 3.914320
A 9.707880 30.893500 3.523820
A 10.061400 30.082000 3.058390
A 10.017900 30.060800 3.063970
A 9.336570 31.696200 3.992240
A 9.354390 31.704900 3.989250
A 9.497610 32.600000 3.595580
A 9.502070 32.611900 3.594560
A 9.838270 31.782300 3.131440
A 9.855570 31.800400 3.129130
A 10.103600 32.862400 2.540330
A 10.101800 32.839200 2.540260
A 7.171700 29.561400 5.481850
A 7.182300 29.555400 5.457660
A 6.716380 30.136300 4.738340
A 6.700640 30.135900 4.760770
A 6.456040 30.547800 5.611810
A 6.442360 30.552000 5.632670
A 6.110940 30.937700 4.487120
A 8.605150 30.547500 5.438160
A 9.059020 29.891100 4.778610
A 9.206710 30.798000 4.383930
A 9.175520 30.792400 4.388890
A 9.014480 29.888600 4.785550
A 8.571290 30.553200 5.444210
A 8.853210 31.609500 4.849360
A 9.000900 32.516400 4.454670
A 8.834860 31.610100 4.853030
A 8.995910 32.513900 4.456370
A 8.367500 32.531800 5.519850
A 8.363890 32.541000 5.522130
A 8.333160 31.524000 5.713820
A 8.352040 31.514100 5.709470
A 7.378140 29.363800 6.476960
A 7.383870 29.350800 6.452330
A 6.195710 30.959300 6.485280
A 6.789790 30.155100 6.468800
A 6.781110 30.166000 6.490760
A 7.267070 29.577100 7.455820
A 6.529450 30.566600 7.342280
A 6.522830 30.582100 7.362660
A 7.264620 29.596200 7.479470
A 6.184080 30.968100 6.504570
A 6.863200 30.173800 8.199270
A 6.861570 30.196100 8.220750
A 6.276990 31.002900 8.502180
A 6.280470 30.981000 8.483450
A 27.606200 2.670750 12.770500
A 27.603900 2.682840 12.784300
A 27.174400 1.973110 13.403700
A 27.179300 1.967240 13.398800
A 27.247600 1.094340 13.946200
A 27.255700 1.095540 13.952100
A 27.484200 4.391910 16.480000
A 27.473100 4.402270 16.488500
A 29.050600 1.342250 13.116600
A 29.057600 1.339520 13.119000
A 28.735800 2.187800 12.685300
A 28.739800 2.178530 12.677300
A 28.112500 1.657680 13.260200
A 28.118500 1.653380 13.258900
A 29.673900 1.872380 12.541800
A 29.678900 1.864670 12.537400
A 30.859500 1.583500 12.285800
A 30.853500 1.590160 12.287100
A 29.996700 1.025660 12.979100
A 29.988600 1.026820 12.973100
A 30.297300 2.402500 11.966900
A 30.300200 2.389820 11.955700
A 28.421900 3.017550 12.235500
A 28.421100 3.033360 12.253900
A 29.408000 2.914720 11.937300
A 29.406900 2.930750 11.954700
A 28.436300 0.814368 13.700600
A 28.427200 0.812127 13.691500
A 29.371900 5.815310 14.927200
A 29.352900 5.819800 14.920800
A 30.326900 5.436830 14.798300
A 30.307300 5.440910 14.788600
A 31.030700 4.699000 14.977600
A 31.012000 4.703850 14.967200
A 30.357300 2.458400 16.567200
A 30.346900 2.469380 16.568800
A 28.910000 3.435830 16.528700
A 28.568900 3.794070 16.434000
A 28.424400 4.253230 16.218600
A 29.375800 4.104190 15.948600
A 29.389500 4.095710 15.948500
A 29.398300 3.235910 16.459100
A 29.861300 3.286790 16.258700
A 30.218900 3.537560 15.973700
A 31.048300 2.979400 15.998800
A 31.034900 2.988230 15.995000
A 30.327100 3.955150 15.678700
A 31.278400 3.806110 15.408800
A 31.294800 3.799510 15.417000
A 28.890200 4.921590 15.638500
A 27.730700 5.212030 15.898200
A 28.560100 4.653870 15.923300
A 27.716600 5.220140 15.902300
A 28.404600 5.739000 15.328400
A 28.421600 5.733030 15.329800
A 29.380700 4.955510 15.437900
A 29.841500 4.772550 15.368600
A 30.210100 4.397360 15.463000
A 29.398600 2.388570 16.976500
A 29.407100 2.376110 16.969800
A 28.444300 2.767470 17.108700
A 28.452100 2.754600 17.098700
A 27.739500 3.504530 16.930100
A 27.748300 3.492430 16.919400
A 30.926700 33.074300 12.829600
A 30.935900 33.074700 12.839200
A 27.815000 32.652100 14.282200
A 28.694200 32.116700 14.278500
A 28.707200 32.127200 14.300600
A 29.365300 32.859600 13.548000
A 29.375400 32.863400 13.560700
A 27.803800 32.644900 14.266400
A 29.693300 32.024400 14.002400
A 29.680000 32.014100 13.979400
A 30.497200 32.364600 13.449000
A 30.509000 32.371200 13.467500
A 0.894868 15.117500 4.172070
A 0.909206 15.109700 4.160190
A 1.672820 13.970800 5.616310
A 1.538650 14.606000 4.809830
A 1.532020 14.613200 4.813570
A 1.675840 13.972800 5.614330
A 1.275750 13.374300 6.363530
A 1.287800 13.368200 6.359760
A 5.958180 15.532600 9.421720
A 5.970380 16.191500 8.623270
A 7.985870 12.980700 7.346700
A 7.736980 14.552200 6.134760
A 7.357550 14.569100 7.059870
A 7.482000 13.783400 7.665840
A 7.998070 13.639600 6.548250
A 6.252600 16.420300 7.653780
A 7.272550 15.473800 6.217050
A 6.729230 16.157600 6.773050
A 6.853680 15.371800 7.379010
A 7.703650 12.751900 8.316180
A 7.227020 13.014600 9.196920
A 7.102570 13.800300 8.590950
A 6.598700 14.603100 8.910090
A 6.978130 14.586100 7.984980
A 6.474250 15.388800 8.304120
A 6.683700 13.698400 9.752920
A 6.219270 14.620000 9.835200
A 31.272800 15.250500 3.965630
A 31.289500 15.253900 3.939060
A 32.316100 15.346800 3.841470
A 32.298000 15.350800 3.861700
A 30.204700 13.624100 5.980520
A 30.212700 13.598500 6.002210
A 30.456900 14.843500 4.456020
A 30.467600 14.855800 4.426820
A 30.070600 14.259300 5.174050
A 30.068900 14.238800 5.201460
A 31.061900 14.187200 5.284610
A 31.061300 14.172300 5.304670
A 33.044400 14.042900 5.505740
A 33.046300 14.039300 5.511110
A 31.451800 13.600000 6.025800
A 31.443700 13.617700 6.012670
A 31.663300 14.678200 4.686760
A 31.671300 14.684500 4.667120
A 32.662600 14.612300 4.777690
A 32.655800 14.611700 4.789980
A 32.053800 14.105800 5.407890
A 32.053200 14.115000 5.395180
A 30.834200 13.120400 6.630160
A 30.849800 13.094200 6.643710
A 31.809600 12.860900 6.954080
A 31.790300 12.883300 6.948880
A 32.816800 12.976200 6.851290
A 32.834800 12.961200 6.850150
A 32.435000 13.545600 6.123230
A 32.444300 13.533500 6.129020
A 10.974800 11.047700 23.502900
A 10.940900 10.048800 23.773000
A 9.951300 8.989120 25.150700
A 10.566300 9.295330 24.376100
A 9.465060 10.088400 25.452500
A 9.669330 10.964600 25.015900
A 9.016600 10.923100 25.772400
A 10.117800 10.130000 24.696000
A 10.322100 11.006200 24.259400
A 9.260790 9.212250 25.889100
A 8.679750 9.904920 26.393600
A 8.363870 10.881500 26.528900
A 10.658900 12.024300 23.638200
A 9.220870 11.799300 25.335700
A 9.387360 12.940100 24.881000
A 8.772410 12.633900 25.655600
A 9.873600 11.840800 24.579200
A 10.077900 12.717000 24.142600
A 8.397780 11.880400 26.258800
A 1.811720 23.254600 10.059600
A 0.918149 23.408100 10.559400
A 1.581250 23.990300 11.029900
A 2.821220 23.454200 9.945810
A 2.532780 24.013400 10.723100
A 3.676140 23.953600 10.248600
A 2.244350 24.572600 11.500400
A 3.195880 24.595700 11.193600
A 4.147420 24.618700 10.886800
A 1.292820 24.549500 11.807200
A 0.812559 25.191600 12.752300
A 1.955920 25.131700 12.277800
A 1.667480 25.690900 13.055100
A 4.108770 25.271500 11.689500
A 2.907450 25.154800 11.970900
A 3.570550 25.737100 12.441400
A 2.676980 25.890600 12.941300
A 32.742800 23.873600 11.311400
A 32.704200 24.526400 12.114100
A 0.760608 20.375800 21.993700
A 0.771707 20.401800 22.028800
A 0.869189 21.051400 21.216800
A 0.877908 21.075100 21.249500
A 22.093700 18.476800 19.617900
A 21.937300 20.325300 18.870200
A 21.836300 19.313500 19.065100
A 22.640500 18.039400 20.380500
A 22.505000 19.640200 19.733000
A 22.907200 19.003200 20.390700
A 23.173800 19.967000 20.400900
A 22.771700 20.604000 19.743200
A 22.369600 21.241000 19.085500
A 23.017400 21.815400 19.653200
A 23.440500 20.930700 20.411100
A 23.707100 21.894500 20.421300
A 23.330200 18.118500 21.148600
A 23.978000 18.692900 21.716300
A 23.575900 19.329900 21.058600
A 23.842600 20.293700 21.068800
A 24.410300 19.608600 21.931600
A 24.511300 20.620400 21.736700
A 24.253900 21.457100 21.183900
A 28.632200 18.174500 14.496500
A 28.593300 18.173800 14.497400
A 28.248300 20.118000 14.221100
A 28.235700 20.121900 14.218700
A 28.279500 19.085300 14.153300
A 28.251900 19.088700 14.153500
A 28.879500 19.312600 14.920300
A 28.850700 19.826000 14.949600
A 29.029600 18.851900 15.089000
A 28.547000 20.995700 14.681900
A 28.549100 20.996400 14.675600
A 29.168600 17.622400 15.158400
A 29.212000 17.629500 15.158800
A 29.345800 18.584600 15.423100
A 29.644600 18.556000 15.819900
A 30.382500 18.063700 16.685400
A 29.863500 17.596300 15.962800
A 29.823500 17.582000 15.959200
A 30.412100 18.083900 16.693000
A 29.465800 19.530100 15.680500
A 29.479500 19.539800 15.687400
A 29.013300 20.267700 15.184700
A 30.079600 19.767000 16.454500
A 30.080900 19.234200 16.411400
A 29.945800 18.811800 16.190200
A 29.902100 20.208200 16.272100
A 29.287000 20.504100 15.541200
A 29.095600 21.483200 15.412100
A 29.108200 21.478100 15.401800
A 30.338300 20.886300 16.863600
A 29.763100 21.437800 16.202700
A 30.326800 20.905100 16.878400
A 29.613300 20.494900 15.951700
A 29.747000 21.450100 16.216100
A 30.710800 18.961600 17.153700
A 30.696000 18.938300 17.142300
A 30.679800 19.971400 17.207500
A 30.679600 19.994200 17.221600
A 32.996900 21.959600 20.778900
A 32.999000 21.979000 20.806300
A 32.590600 21.485400 21.849400
A 32.470400 21.957200 21.655000
A 32.538200 21.168600 22.266200
A 32.708800 20.139400 22.935300
A 32.700200 20.113800 22.901500
A 32.075700 20.335500 23.696900
A 32.077500 20.358200 23.726100
A 31.413300 21.913700 23.352300
A 32.324700 21.016600 22.691800
A 31.949100 21.919400 22.482000
A 31.941800 21.935400 22.503700
A 32.009700 21.146800 23.114900
A 31.683100 21.450500 23.324400
A 30.901300 21.879100 24.185200
A 30.884700 21.891900 24.201000
A 31.417200 20.981700 24.166700
A 31.409800 20.999700 24.189400
A 31.197900 23.724900 22.062600
A 31.174800 23.731500 22.072000
A 32.215000 22.388200 21.639700
A 31.806200 23.512600 21.281200
A 32.480900 22.857000 20.797300
A 32.473800 22.871100 20.817900
A 31.822500 23.503200 21.267200
A 31.874000 22.724000 21.892400
A 31.573500 22.822200 22.272300
A 30.774600 23.462900 22.970400
A 30.749000 23.469100 22.978500
A 30.642800 22.795700 23.757800
A 30.666000 22.787300 23.747300
A 31.345400 22.702200 22.741100
A 31.307600 22.353300 23.114700
A 21.891100 25.393800 2.242490
A 21.342200 27.453200 1.913440
A 21.317300 27.471100 1.891350
A 21.850300 25.056800 3.220570
A 22.243500 25.033600 4.178050
A 20.755400 26.569800 3.586080
A 20.786300 26.549700 3.609030
A 21.871900 27.591200 2.750400
A 21.593900 27.139400 3.598200
A 20.857400 26.888900 2.633430
A 20.828100 26.910300 2.611070
A 21.605300 27.321400 3.087460
A 21.750600 27.136700 4.059490
A 21.820600 26.831200 5.258580
A 21.845700 26.825600 5.282950
A 22.123600 27.277400 4.435160
A 21.148100 26.526600 4.578830
A 21.118700 26.540800 4.555140
A 22.092000 28.102000 1.619780
A 22.110900 28.091500 1.641970
A 22.237300 27.917300 2.591820
A 22.354900 25.954400 1.505890
A 23.117400 26.588200 1.208130
A 23.974400 27.125600 1.429010
A 23.722100 26.676800 2.286360
A 22.912300 26.091200 2.324790
A 24.696100 27.422400 2.109340
A 22.660100 25.642400 3.182130
A 23.217500 25.779200 4.001040
A 23.469800 26.228000 3.143700
A 24.027300 26.364800 3.962600
A 25.048500 27.062200 4.044900
A 24.279500 26.813600 3.105260
A 25.089300 27.399200 3.066820
A 23.822200 25.867800 5.079260
A 22.965200 25.330500 4.858380
A 22.527900 27.547900 4.535880
A 22.673100 27.363200 5.507920
A 22.692200 27.366800 5.532750
A 24.584700 26.501700 4.781500
A 22.944500 28.634000 1.869120
A 22.957400 28.632600 1.891760
A 22.679500 28.180900 2.739560
A 23.655000 28.931700 2.595890
A 23.646400 28.924400 2.572560
A 23.209100 28.318800 3.576520
A 23.014500 28.328500 3.068210
A 24.009700 28.895400 3.541620
A 24.016700 28.908500 3.565680
A 22.382600 27.732600 3.563850
A 23.159800 28.143800 4.040240
A 22.401500 27.729100 3.587360
A 22.931200 27.867100 4.424320
A 23.945700 28.569400 4.541280
A 23.937000 28.554900 4.516630
A 23.447800 27.994100 5.236350
A 23.460900 28.005100 5.261280
A 14.680100 29.415500 16.866900
A 14.667700 29.388800 16.863000
A 12.058900 29.249000 17.916700
A 12.052300 29.231100 17.928500
A 12.860900 28.807400 17.433400
A 12.849100 28.787300 17.438600
A 13.806400 28.845100 17.048600
A 13.820300 28.868300 17.049100
A 12.538800 30.379000 18.086500
A 12.538700 30.358100 18.099300
A 13.154700 29.745200 17.618300
A 13.148600 29.723100 17.625100
A 11.629200 30.074900 18.369700
A 11.629400 30.057400 18.387100
A 11.687000 31.063700 18.670900
A 11.693900 31.044900 18.691500
A 14.064300 30.049300 17.335100
A 14.057900 30.023800 17.337300
A 13.448100 30.658800 17.811600
A 13.448500 30.683100 17.803300
A 14.358100 30.987200 17.520100
A 14.357400 30.959500 17.523800
A 15.266700 31.260200 17.236000
A 15.209900 30.302400 16.935700
A 15.202200 30.272800 16.931600
A 12.832600 31.316800 18.271400
A 12.838200 31.293900 18.285800
A 13.076600 32.497800 18.557400
A 13.089700 32.472600 18.574600
A 14.047000 32.530300 18.184600
A 13.742300 31.620900 17.988200
A 13.747500 31.594600 17.998100
A 14.036000 32.558800 18.173200
A 14.843800 32.086600 17.694600
A 14.838000 32.117100 17.689800
A 15.267700 31.291200 17.236900
A 12.228400 31.928900 18.760100
A 12.216800 31.950600 18.739600
A 20.460700 4.933100 19.871000
A 20.993800 5.568210 20.430100
A 20.806800 5.648480 19.207500
A 20.400200 4.558070 20.834200
A 20.641600 4.623880 21.838800
A 21.617400 6.048710 21.972900
A 21.084300 5.413600 21.413900
A 21.120300 5.112900 22.615700
A 21.707900 5.894100 22.956800
A 21.345900 6.512530 19.021300
A 21.436400 6.357920 20.005200
A 21.933600 7.293730 19.362400
A 21.526900 6.203310 20.989100
A 22.060100 6.838420 21.548100
A 21.969600 6.993030 20.564200
A 22.247000 6.758150 22.770600
A 22.412200 7.782750 20.139400
A 22.593200 7.473530 22.107100
A 22.653600 7.848560 21.144000
A 19.909400 1.072590 25.790700
A 20.717400 1.396260 25.298400
A 18.764400 1.253890 27.077800
A 19.256400 2.288850 27.549900
A 19.572500 1.577560 26.585500
A 20.043600 2.406210 26.887900
A 19.101300 0.748915 26.283100
A 20.578400 2.079500 26.063800
A 18.427500 1.758860 27.872500
A 17.779300 0.958266 27.769200
A 18.159000 31.454500 25.678300
A 19.775100 32.101900 24.693600
A 18.946300 31.571900 25.016200
A 19.438200 32.606900 25.488300
A 20.423400 32.902500 24.796900
A 17.624200 31.781200 26.502400
A 18.630200 32.283200 25.980700
A 17.485200 32.464500 27.267700
A 18.293300 32.788200 26.775400
