LAMMPS (3 Mar 2020)
OMP_NUM_THREADS environment is not set. Defaulting to 1 thread. (src/comm.cpp:94)
  using 1 OpenMP thread(s) per MPI task
Reading restart file ...
  restart file = 3 Mar 2020, LAMMPS = 3 Mar 2020
  restoring atom style full from restart
  orthogonal box = (0.468009 0.468009 0.468009) to (33.322 33.322 33.322)
  6 by 6 by 6 MPI processor grid
  restoring pair style hybrid/overlay from restart
  restoring bond style fene from restart
  28900 atoms
  8700 bonds
Finding 1-2 1-3 1-4 neighbors ...
  special bond factors lj:   0          1          1         
  special bond factors coul: 0          1          1         
  2 = max # of 1-2 neighbors
  6 = max # of special neighbors
  special bonds CPU = 2.45309 secs
  read_restart CPU = 2.61217 secs
Resetting global fix info from restart file:
  fix style: nvt, fix ID: pt
100 rigid bodies with 1900 atoms
Resetting global fix info from restart file:
  fix style: rigid/nvt, fix ID: ri
System init for write_data ...
PPPM initialization ...
  using 12-bit tables for long-range coulomb (src/kspace.cpp:332)
  G vector (1/distance) = 1.23381
  grid = 120 120 120
  stencil order = 5
  estimated absolute RMS force accuracy = 0.000120552
  estimated relative force accuracy = 0.000120552
  using double precision FFTW3
  3d grid and FFT values/proc = 19683 8400
All restart file global fix info was re-assigned
Unused restart file peratom fix info:
  fix style: STORE, fix ID: par_COMPUTE_STORE
WARNING: Neighbor exclusions used with KSpace solver may give inconsistent Coulombic energies (src/neighbor.cpp:486)
Neighbor list info ...
  update every 1 steps, delay 0 steps, check yes
  max neighbors/atom: 2000, page size: 100000
  master list distance cutoff = 2.8
  ghost atom cutoff = 2.8
  binsize = 1.4, bins = 24 24 24
  2 neighbor lists, perpetual/occasional/extra = 2 0 0
  (1) pair lj/cut, perpetual
      attributes: half, newton on
      pair build: half/bin/newton
      stencil: half/bin/3d/newton
      bin: standard
  (2) pair coul/long, perpetual, skip from (1)
      attributes: half, newton on
      pair build: skip
      stencil: none
      bin: none
PPPM initialization ...
  using 12-bit tables for long-range coulomb (src/kspace.cpp:332)
  G vector (1/distance) = 1.23381
  grid = 120 120 120
  stencil order = 5
  estimated absolute RMS force accuracy = 0.000120552
  estimated relative force accuracy = 0.000120552
  using double precision FFTW3
  3d grid and FFT values/proc = 19683 8400
WARNING: Neighbor exclusions used with KSpace solver may give inconsistent Coulombic energies (src/neighbor.cpp:486)
Neighbor list info ...
  update every 1 steps, delay 0 steps, check yes
  max neighbors/atom: 2000, page size: 100000
  master list distance cutoff = 2.8
  ghost atom cutoff = 2.8
  binsize = 1.4, bins = 24 24 24
  2 neighbor lists, perpetual/occasional/extra = 2 0 0
  (1) pair lj/cut, perpetual
      attributes: half, newton on
      pair build: half/bin/newton
      stencil: half/bin/3d/newton
      bin: standard
  (2) pair coul/long, perpetual, skip from (1)
      attributes: half, newton on
      pair build: skip
      stencil: none
      bin: none
Setting up Verlet run ...
  Unit style    : lj
  Current step  : 12000000
  Time step     : 0.005
Per MPI rank memory allocation (min/avg/max) = 10.96 | 11.06 | 11.2 Mbytes
Step Temp Press Volume 
12000000   0.79148103   0.78224234    35462.068 
12010000   0.80244016  -0.13418371    35462.068 
12020000   0.79941642  -0.12480407    35462.068 
12030000   0.79684593  -0.18243187    35462.068 
12040000   0.80127121  -0.11191553    35462.068 
12050000   0.80077609  -0.10912799    35462.068 
12060000   0.80199792  -0.15862248    35462.068 
12070000   0.80507973  -0.15337064    35462.068 
12080000   0.79942737  -0.13074171    35462.068 
12090000   0.79465955  -0.17982194    35462.068 
12100000   0.80853244  -0.11947639    35462.068 
12110000    0.8049659 -0.079865945    35462.068 
12120000   0.80154035 -0.090634664    35462.068 
12130000   0.79925893  -0.10894674    35462.068 
12140000   0.80181145  -0.15155965    35462.068 
12150000   0.79799934  -0.04289728    35462.068 
12160000     0.800016  -0.12815535    35462.068 
12170000   0.80338854  -0.11188065    35462.068 
12180000   0.79838039  -0.12515856    35462.068 
12190000   0.80243616  -0.16608045    35462.068 
12200000   0.80051914  -0.15652022    35462.068 
12210000   0.79980284  -0.12600497    35462.068 
12220000   0.80436444 -0.065574438    35462.068 
12230000   0.80518948  -0.19576995    35462.068 
12240000   0.79940647  -0.16444313    35462.068 
12250000   0.79562069 -0.093320743    35462.068 
12260000   0.80037353  -0.11542488    35462.068 
12270000   0.80411868  -0.17739696    35462.068 
12280000   0.79879089  -0.14229046    35462.068 
12290000   0.80095354  -0.13341508    35462.068 
12300000   0.79809845  -0.16852438    35462.068 
12310000   0.79819166 -0.088473389    35462.068 
12320000   0.79885937  -0.10681208    35462.068 
12330000   0.80048253 -0.097613238    35462.068 
12340000   0.80276853 -0.094570979    35462.068 
12350000   0.79723478  -0.11029115    35462.068 
12360000   0.80447986  -0.10997124    35462.068 
12370000   0.79987255   -0.1562566    35462.068 
12380000   0.80308339  -0.11302317    35462.068 
12390000   0.79973339 -0.099012407    35462.068 
12400000   0.80041948  -0.14426011    35462.068 
12410000   0.80077289 -0.098240132    35462.068 
12420000    0.7944697  -0.13013436    35462.068 
12430000   0.80207056  -0.13117617    35462.068 
12440000   0.79999692   -0.1579124    35462.068 
12450000   0.80407785 -0.057632595    35462.068 
12460000   0.80857155 -0.079100156    35462.068 
12470000   0.80089777  -0.17995944    35462.068 
12480000   0.80450598  -0.12580866    35462.068 
12490000    0.8045441 -0.089059147    35462.068 
12500000    0.7980807  -0.15088994    35462.068 
12510000   0.80222079  -0.13111533    35462.068 
12520000   0.80402316  -0.11920222    35462.068 
12530000   0.79976033  -0.11646392    35462.068 
12540000   0.80197906  -0.16984854    35462.068 
12550000   0.80319421   -0.1801249    35462.068 
12560000   0.80136439  -0.17246786    35462.068 
12570000   0.80298558 -0.021136517    35462.068 
12580000   0.79903329  -0.15842951    35462.068 
12590000   0.79946054  -0.11487212    35462.068 
12600000   0.80551314  -0.17317136    35462.068 
12610000   0.79588357  -0.15602382    35462.068 
12620000   0.79075687  -0.14706073    35462.068 
12630000   0.80001887  -0.20064869    35462.068 
12640000   0.80109719  -0.10933485    35462.068 
12650000   0.79986575  -0.18906718    35462.068 
12660000   0.80144057  -0.12370806    35462.068 
12670000   0.79520125  -0.10426573    35462.068 
12680000   0.80482314 -0.089795146    35462.068 
12690000   0.79463792 -0.045754166    35462.068 
12700000   0.80227132   -0.1547669    35462.068 
12710000   0.79903685  -0.12250984    35462.068 
12720000   0.79985523  -0.21307642    35462.068 
12730000   0.79902332  -0.10362882    35462.068 
12740000   0.79847504   -0.2054282    35462.068 
12750000   0.79801324   -0.1616543    35462.068 
12760000   0.79981677  -0.13584202    35462.068 
12770000   0.80200177  -0.12158448    35462.068 
12780000   0.80600597 -0.054904894    35462.068 
12790000     0.801978   -0.1646784    35462.068 
12800000   0.79910106  -0.12556912    35462.068 
12810000   0.80019608 -0.086164478    35462.068 
12820000   0.80133627  -0.15935421    35462.068 
12830000   0.80161623 -0.092917362    35462.068 
12840000    0.7987971  -0.13993851    35462.068 
12850000   0.80084712  -0.12261405    35462.068 
12860000   0.79759511  -0.13559148    35462.068 
12870000   0.79776295  -0.13720838    35462.068 
12880000     0.803466 -0.082813074    35462.068 
12890000   0.80620227  -0.11094192    35462.068 
12900000   0.80470545 -0.080287839    35462.068 
12910000   0.79721559  -0.12037518    35462.068 
12920000   0.80007968  -0.15237963    35462.068 
12930000   0.79466314  -0.19332009    35462.068 
12940000   0.79987444  -0.12121379    35462.068 
12950000   0.80274619   -0.1467046    35462.068 
12960000   0.80278829  -0.13353901    35462.068 
12970000   0.79956853  -0.08145844    35462.068 
12980000   0.79799956  -0.13579859    35462.068 
12990000   0.80351863  -0.17075269    35462.068 
13000000   0.79905444  -0.11250464    35462.068 
Loop time of 14956.5 on 216 procs for 1000000 steps with 28900 atoms

Performance: 28883.798 tau/day, 66.861 timesteps/s
99.7% CPU use with 216 MPI tasks x 1 OpenMP threads

MPI task timing breakdown:
Section |  min time  |  avg time  |  max time  |%varavg| %total
---------------------------------------------------------------
Pair    | 95.451     | 243.38     | 447.23     | 349.9 |  1.63
Bond    | 1.0153     | 2.2968     | 3.9478     |  32.6 |  0.02
Kspace  | 13399      | 13705      | 13904      |  70.2 | 91.63
Neigh   | 151.74     | 157.65     | 164.28     |  21.7 |  1.05
Comm    | 258.97     | 349.82     | 562.28     | 302.0 |  2.34
Output  | 0.010736   | 0.012886   | 0.023686   |   1.0 |  0.00
Modify  | 353.33     | 399.6      | 452.41     | 102.5 |  2.67
Other   |            | 98.94      |            |       |  0.66

Nlocal:    133.796 ave 240 max 6 min
Histogram: 2 2 5 6 19 139 25 11 5 2
Nghost:    973.926 ave 1290 max 312 min
Histogram: 2 1 3 6 7 16 84 72 17 8
Neighs:    5144.78 ave 13800 max 26 min
Histogram: 5 9 19 126 28 15 6 5 2 1

Total # of neighbors = 1111272
Ave neighs/atom = 38.4523
Ave special neighs/atom = 0.602076
Neighbor list builds = 134399
Dangerous builds = 0
PPPM initialization ...
  using 12-bit tables for long-range coulomb (src/kspace.cpp:332)
  G vector (1/distance) = 1.23381
  grid = 120 120 120
  stencil order = 5
  estimated absolute RMS force accuracy = 0.000120552
  estimated relative force accuracy = 0.000120552
  using double precision FFTW3
  3d grid and FFT values/proc = 19683 8400
WARNING: Neighbor exclusions used with KSpace solver may give inconsistent Coulombic energies (src/neighbor.cpp:486)
Neighbor list info ...
  update every 1 steps, delay 0 steps, check yes
  max neighbors/atom: 2000, page size: 100000
  master list distance cutoff = 2.8
  ghost atom cutoff = 2.8
  binsize = 1.4, bins = 24 24 24
  7 neighbor lists, perpetual/occasional/extra = 2 5 0
  (1) pair lj/cut, perpetual
      attributes: half, newton on
      pair build: half/bin/newton
      stencil: half/bin/3d/newton
      bin: standard
  (2) pair coul/long, perpetual, skip from (1)
      attributes: half, newton on
      pair build: skip
      stencil: none
      bin: none
  (3) compute rdf, occasional, copy from (1)
      attributes: half, newton on
      pair build: copy
      stencil: none
      bin: none
  (4) compute rdf, occasional, copy from (1)
      attributes: half, newton on
      pair build: copy
      stencil: none
      bin: none
  (5) compute rdf, occasional, copy from (1)
      attributes: half, newton on
      pair build: copy
      stencil: none
      bin: none
  (6) compute rdf, occasional, copy from (1)
      attributes: half, newton on
      pair build: copy
      stencil: none
      bin: none
  (7) compute rdf, occasional, copy from (1)
      attributes: half, newton on
      pair build: copy
      stencil: none
      bin: none
Setting up Verlet run ...
  Unit style    : lj
  Current step  : 0
  Time step     : 0.005
Per MPI rank memory allocation (min/avg/max) = 18.6 | 20.11 | 20.74 Mbytes
Step Temp Press PotEng KinEng E_pair E_bond TotEng 
       0   0.79905444  -0.24387559    1.2492537    1.1280354   -4.9545528    6.2038065    2.3772891 
   10000   0.80228125  -0.13463995     1.249112    1.1325907   -4.9519371    6.2010491    2.3817028 
   20000   0.79868487  -0.14796934     1.257156    1.1275137   -4.9453308    6.2024868    2.3846697 
   30000   0.79607502  -0.14970735    1.2459221    1.1238293   -4.9555076    6.2014296    2.3697514 
   40000   0.79760744  -0.18217634    1.2613026    1.1259926   -4.9449596    6.2062622    2.3872952 
   50000    0.7990137  -0.14616723    1.2518383    1.1279779   -4.9529288    6.2047671    2.3798162 
   60000    0.8056042  -0.16392496    1.2528512    1.1372818   -4.9502913    6.2031425     2.390133 
   70000   0.80060456  -0.14099856    1.2441008    1.1302237    -4.961257    6.2053578    2.3743245 
   80000   0.80059925  -0.21188331    1.2728621    1.1302162   -4.9300757    6.2029378    2.4030783 
   90000   0.79837057  -0.11605631    1.2617037      1.12707   -4.9432073    6.2049109    2.3887736 
  100000   0.79777994  -0.13666761    1.2372833    1.1262361   -4.9659716    6.2032549    2.3635194 
  110000   0.80029238   -0.1217973    1.2641554     1.129783   -4.9428833    6.2070387    2.3939384 
  120000   0.80146211   -0.1229314    1.2585037    1.1314343   -4.9455489    6.2040527    2.3899381 
  130000   0.79919467  -0.13859546    1.2477085    1.1282333   -4.9554488    6.2031573    2.3759418 
  140000   0.79983849  -0.13923104     1.237138    1.1291422   -4.9639511    6.2010891    2.3662802 
  150000   0.80192219  -0.19565802    1.2429918    1.1320838   -4.9621237    6.2051155    2.3750756 
  160000    0.8014688  -0.17694374    1.2497516    1.1314438   -4.9536897    6.2034413    2.3811954 
  170000    0.7994865  -0.16891309    1.2656114    1.1286453   -4.9434546    6.2090659    2.3942567 
  180000    0.7946221  -0.14752601    1.2603748    1.1217782   -4.9434698    6.2038446     2.382153 
  190000   0.80026615  -0.11017462    1.2490824     1.129746   -4.9521405    6.2012228    2.3788283 
  200000    0.8015355  -0.10528225    1.2491473    1.1315379    -4.951985    6.2011323    2.3806852 
  210000   0.79598785  -0.15789766    1.2564454    1.1237062   -4.9524146      6.20886    2.3801517 
  220000   0.80221863  -0.15823038    1.2570834    1.1325023   -4.9514696     6.208553    2.3895858 
  230000   0.79764185  -0.15601092    1.2698751    1.1260412   -4.9328127    6.2026878    2.3959163 
  240000   0.79369608  -0.18842634    1.2613388    1.1204709   -4.9426521    6.2039909    2.3818097 
  250000   0.80438043  -0.14335133    1.2651821    1.1355542   -4.9389237    6.2041059    2.4007363 
  260000   0.79952844  -0.12122324    1.2482611    1.1287045   -4.9532445    6.2015056    2.3769656 
  270000    0.7973912   -0.1158124    1.2588598    1.1256874   -4.9443053    6.2031651    2.3845471 
  280000   0.80032825  -0.13488886    1.2449736    1.1298336   -4.9594756    6.2044492    2.3748072 
  290000   0.80140405  -0.15456395    1.2760977    1.1313524   -4.9296535    6.2057513    2.4074501 
  300000   0.79639805  -0.18889553    1.2446443    1.1242853   -4.9567125    6.2013568    2.3689296 
  310000   0.80098033  -0.15282013    1.2657028    1.1307542   -4.9398705    6.2055733     2.396457 
  320000   0.80399636 -0.092580647     1.270321     1.135012   -4.9334045    6.2037256     2.405333 
  330000   0.79463739  -0.17924377     1.252524    1.1217998   -4.9537428    6.2062668    2.3743238 
  340000   0.80476965  -0.16489173    1.2578847    1.1361036   -4.9452285    6.2031132    2.3939883 
  350000   0.81133516  -0.14665176    1.2658378    1.1453722   -4.9385591    6.2043969      2.41121 
  360000   0.79703957  -0.13035284     1.255249     1.125191   -4.9461446    6.2013937      2.38044 
  370000   0.80135553  -0.17633418    1.2498999    1.1312839   -4.9537021     6.203602    2.3811837 
  380000   0.80340444 -0.099612844    1.2548285    1.1341763    -4.950144    6.2049725    2.3890048 
  390000   0.80382447  -0.12821489    1.2636408    1.1347693   -4.9426908    6.2063316    2.3984101 
  400000   0.80031228 -0.069203301    1.2413382    1.1298111    -4.961181    6.2025192    2.3711493 
  410000   0.79974758  -0.15355041    1.2478926    1.1290139   -4.9568272    6.2047198    2.3769064 
  420000   0.79797721 -0.078535507    1.2460548    1.1265146   -4.9570574    6.2031122    2.3725695 
  430000   0.79158299  -0.17744968    1.2650976    1.1174878   -4.9386352    6.2037327    2.3825854 
  440000   0.80240653  -0.10147474    1.2482966    1.1327676   -4.9554468    6.2037433    2.3810641 
  450000   0.80376238  -0.15699329    1.2659993    1.1346816   -4.9408701    6.2068695     2.400681 
  460000   0.79979761  -0.12236194    1.2472523    1.1290845   -4.9557081    6.2029604    2.3763369 
  470000   0.79032362  -0.12590351      1.25123      1.11571   -4.9545842    6.2058142      2.36694 
  480000   0.79891718  -0.17264506    1.2362089    1.1278416   -4.9669007    6.2031096    2.3640505 
  490000   0.80149751  -0.25354715    1.2674632    1.1314843   -4.9373034    6.2047666    2.3989475 
  500000   0.80121567  -0.11303081    1.2546168    1.1310864   -4.9457726    6.2003894    2.3857032 
  510000   0.79580166  -0.14453186    1.2507694    1.1234434   -4.9510086     6.201778    2.3742128 
  520000   0.79183151  -0.20512469     1.249645    1.1178387   -4.9558118    6.2054568    2.3674837 
  530000   0.79246502  -0.12762248    1.2409189     1.118733   -4.9614634    6.2023823     2.359652 
  540000   0.79882085  -0.14727346    1.2630387    1.1277056   -4.9422979    6.2053366    2.3907443 
  550000   0.79502149  -0.18164613    1.2587122     1.122342   -4.9441694    6.2028816    2.3810542 
  560000   0.79971572  -0.09285832    1.2534509    1.1289689   -4.9478939    6.2013448    2.3824199 
  570000   0.80853529 -0.087941522    1.2535256    1.1414196   -4.9519757    6.2055013    2.3949452 
  580000   0.80477559  -0.12428993    1.2490006     1.136112   -4.9557098    6.2047104    2.3851126 
  590000   0.80650692  -0.16839425    1.2596376    1.1385561   -4.9477025    6.2073402    2.3981938 
  600000   0.79440302 -0.056701796    1.2478734    1.1214689   -4.9544748    6.2023482    2.3693424 
  610000   0.79960162  -0.10038588    1.2506749    1.1288078   -4.9542475    6.2049224    2.3794828 
  620000   0.79955477  -0.12745265    1.2502317    1.1287417   -4.9546135    6.2048452    2.3789734 
  630000   0.79832153  -0.15590458    1.2367234    1.1270007   -4.9664092    6.2031326    2.3637241 
  640000   0.80114008  -0.15299707    1.2403329    1.1309797   -4.9619456    6.2022784    2.3713126 
  650000   0.79952399  -0.16798733    1.2547369    1.1286982   -4.9519936    6.2067305    2.3834351 
  660000   0.79758825  -0.13473709    1.2538594    1.1259655   -4.9514054    6.2052648    2.3798249 
  670000   0.80933101  -0.12762127    1.2719455    1.1425429   -4.9326089    6.2045544    2.4144885 
  680000   0.79587257  -0.17361999    1.2483133    1.1235435    -4.954229    6.2025423    2.3718568 
  690000   0.80545636  -0.17586622    1.2436632    1.1370731   -4.9621979    6.2058611    2.3807363 
  700000   0.79720011  -0.09455256    1.2587467    1.1254176   -4.9470819    6.2058286    2.3841643 
  710000    0.7998152  -0.22110244    1.2428381    1.1291094   -4.9597575    6.2025955    2.3719474 
  720000   0.79212763  -0.15914229    1.2424002    1.1182567   -4.9596614    6.2020616    2.3606569 
  730000   0.79172873  -0.10054206    1.2484377    1.1176936   -4.9555626    6.2040003    2.3661313 
  740000   0.80267718 -0.075004972    1.2654617    1.1331497   -4.9406327    6.2060943    2.3986113 
  750000   0.79961148  -0.12855195    1.2374625    1.1288218   -4.9657349    6.2031974    2.3662842 
  760000    0.7950745    -0.145367    1.2488427    1.1224168   -4.9554951    6.2043378    2.3712595 
  770000   0.81397879  -0.13388795    1.2641698    1.1491043   -4.9395788    6.2037486    2.4132741 
  780000    0.7975247  -0.15163859    1.2661402    1.1258758   -4.9402028     6.206343     2.392016 
  790000   0.79905006  -0.15605822    1.2646022    1.1280292   -4.9377904    6.2023926    2.3926314 
  800000   0.80304871  -0.14325657    1.2534869    1.1336741   -4.9506744    6.2041613     2.387161 
  810000   0.80053274  -0.15372885    1.2547717    1.1301223   -4.9480974    6.2028691     2.384894 
  820000   0.80055355  -0.16348627     1.263743    1.1301517   -4.9417117    6.2054547    2.3938947 
  830000   0.79957024  -0.15334997    1.2588421    1.1287635   -4.9436837    6.2025258    2.3876057 
  840000   0.80129815 -0.093193291    1.2428527    1.1312029   -4.9589725    6.2018252    2.3740556 
  850000   0.80542315  -0.15346434    1.2632841    1.1370262   -4.9403152    6.2035993    2.4003103 
  860000   0.80239577  -0.19444745     1.251339    1.1327524   -4.9528366    6.2041756    2.3840913 
  870000   0.80230644 -0.084056032    1.2576765    1.1326263   -4.9455847    6.2032612    2.3903028 
  880000   0.80805402  -0.15417187    1.2504571    1.1407402   -4.9539802    6.2044373    2.3911973 
  890000   0.79746934  -0.15098679    1.2498063    1.1257977   -4.9553559    6.2051622     2.375604 
  900000   0.79570361  -0.10183342    1.2393208     1.123305   -4.9647721    6.2040929    2.3626257 
  910000   0.80216004   -0.1185322     1.241218    1.1324196   -4.9617936    6.2030116    2.3736376 
  920000   0.80287216  -0.13947061    1.2402838    1.1334249   -4.9610218    6.2013056    2.3737087 
  930000   0.79568487 -0.098999954    1.2547184    1.1232785   -4.9508768    6.2055952    2.3779969 
  940000   0.79488877  -0.18028482    1.2711783    1.1221547   -4.9348102    6.2059886     2.393333 
  950000   0.80547268  -0.15492608    1.2526813    1.1370961   -4.9506042    6.2032855    2.3897774 
  960000   0.80209099  -0.17239446    1.2483095    1.1323221   -4.9556804      6.20399    2.3806317 
  970000   0.79952285  -0.11970081    1.2707435    1.1286966   -4.9340212    6.2047647    2.3994401 
  980000    0.7959986  -0.18822595    1.2724077    1.1237214   -4.9347906    6.2071983    2.3961291 
  990000   0.79769684  -0.13089463    1.2518502    1.1261188   -4.9514938     6.203344     2.377969 
 1000000   0.80024959 -0.073911812    1.2642331    1.1297226   -4.9398356    6.2040688    2.3939557 
 1010000   0.80338359  -0.17308031    1.2628948    1.1341469   -4.9415265    6.2044214    2.3970417 
 1020000   0.79639707  -0.11112193    1.2393452    1.1242839   -4.9624711    6.2018163    2.3636291 
 1030000   0.80346473  -0.12596536    1.2395009    1.1342614   -4.9620507    6.2015515    2.3737623 
 1040000   0.80111225 -0.069369222    1.2551287    1.1309404   -4.9475753     6.202704    2.3860691 
 1050000    0.7989186  -0.19858285    1.2588595    1.1278436   -4.9441142    6.2029737    2.3867031 
 1060000   0.79167748  -0.17588037    1.2573333    1.1176212    -4.946161    6.2034943    2.3749545 
 1070000   0.80136594  -0.17246793     1.250842    1.1312986   -4.9549259    6.2057679    2.3821406 
 1080000   0.79419539 0.0031380988    1.2673711    1.1211758    -4.937707    6.2050781    2.3885469 
 1090000   0.80036959  -0.13732908    1.2617089     1.129892   -4.9470291     6.208738    2.3916009 
 1100000   0.79767078  -0.16192627    1.2480242    1.1260821   -4.9550037    6.2030279    2.3741062 
 1110000   0.79890167 -0.099208044    1.2587352    1.1278197   -4.9480045    6.2067397     2.386555 
 1120000   0.79826955  -0.15922478    1.2555706    1.1269273    -4.951148    6.2067186    2.3824979 
 1130000   0.80416496  -0.11183662    1.2515713      1.13525   -4.9531399    6.2047112    2.3868213 
 1140000   0.80105484  -0.12627608    1.2620564    1.1308594   -4.9406591    6.2027155    2.3929158 
 1150000   0.79752264  -0.14394169    1.2585725    1.1258729   -4.9460838    6.2046563    2.3844454 
 1160000   0.80136019   -0.1259347    1.2463887    1.1312904   -4.9587786    6.2051673    2.3776791 
 1170000   0.79184715  -0.18168112    1.2453534    1.1178608   -4.9598084    6.2051618    2.3632142 
 1180000   0.80032171 -0.090886006    1.2641429    1.1298244   -4.9410174    6.2051603    2.3939673 
 1190000   0.80288132 -0.087193858    1.2401358    1.1334378    -4.960929    6.2010649    2.3735737 
 1200000   0.79872652 -0.095578962    1.2712349    1.1275725   -4.9316541    6.2028889    2.3988073 
 1210000   0.79931928  -0.15450329    1.2598337    1.1284093   -4.9453946    6.2052283     2.388243 
 1220000    0.8014234  -0.14150119    1.2414947    1.1313797   -4.9620448    6.2035395    2.3728744 
 1230000   0.79960008   -0.1471922    1.2510948    1.1288057   -4.9524391    6.2035339    2.3799005 
 1240000   0.80631671  -0.15682415    1.2627909    1.1382876   -4.9405241    6.2033149    2.4010785 
 1250000    0.7914641  -0.15672839    1.2567502      1.11732   -4.9499411    6.2066914    2.3740702 
 1260000   0.79934821   -0.1170286    1.2499127    1.1284501   -4.9501394    6.2000521    2.3783628 
 1270000   0.80562658  -0.14808312    1.2478191    1.1373134    -4.957321    6.2051401    2.3851324 
 1280000   0.79722272  -0.18200899    1.2419933    1.1254495   -4.9599092    6.2019025    2.3674428 
 1290000   0.79486053 -0.093774854    1.2543427    1.1221148   -4.9535393     6.207882    2.3764575 
 1300000   0.79818973  -0.17427383     1.244503    1.1268147   -4.9578542    6.2023572    2.3713177 
 1310000   0.79925284 -0.070431241    1.2612511    1.1283155   -4.9411946    6.2024457    2.3895666 
 1320000   0.79751247  -0.11803478    1.2481373    1.1258586   -4.9561347     6.204272    2.3739959 
 1330000   0.79879007  -0.19508802    1.2533282    1.1276622   -4.9523128     6.205641    2.3809903 
 1340000   0.80216861  -0.12065128      1.25433    1.1324317   -4.9507601      6.20509    2.3867617 
 1350000   0.80456383 -0.075179905    1.2574781    1.1358131    -4.946266    6.2037442    2.3932912 
 1360000   0.79566398 -0.066902262    1.2496641     1.123249   -4.9556644    6.2053284    2.3729131 
 1370000   0.80302986   -0.2048056    1.2370674    1.1336475   -4.9647483    6.2018157    2.3707149 
 1380000    0.8040661  -0.12104201    1.2506807    1.1351104   -4.9526175    6.2032982    2.3857911 
 1390000   0.80380263 -0.044137568    1.2417423    1.1347385   -4.9622446    6.2039868    2.3764807 
 1400000   0.80241733  -0.10579046    1.2623754    1.1327828   -4.9439196    6.2062949    2.3951582 
 1410000   0.80343288  -0.10143265    1.2441148    1.1342165   -4.9637459    6.2078607    2.3783313 
 1420000   0.80103361  -0.16110736    1.2467292    1.1308294   -4.9551708       6.2019    2.3775586 
 1430000   0.81404477  -0.12372154    1.2584082    1.1491974   -4.9446155    6.2030237    2.4076056 
 1440000   0.79570028  -0.16139372    1.2427146    1.1233003   -4.9590318    6.2017464    2.3660149 
 1450000   0.79480145  -0.13261156    1.2524557    1.1220314   -4.9530131    6.2054688    2.3744871 
 1460000   0.80136221   -0.1787195    1.2546948    1.1312933   -4.9485177    6.2032124    2.3859881 
 1470000   0.80195295  -0.11171013    1.2564405    1.1321272   -4.9485838    6.2050243    2.3885678 
 1480000   0.81002542 -0.098243332    1.2539133    1.1435233   -4.9503883    6.2043016    2.3974366 
 1490000    0.7981569  -0.14721547    1.2521965    1.1267683    -4.951325    6.2035215    2.3789648 
 1500000   0.80064222 -0.088413878    1.2553627    1.1302769   -4.9458159    6.2011786    2.3856396 
 1510000   0.80547843  -0.21170978    1.2411542    1.1371042   -4.9611622    6.2023164    2.3782584 
 1520000   0.80422654  -0.19187696    1.2454324    1.1353369   -4.9580889    6.2035213    2.3807693 
 1530000   0.80581431  -0.14377067    1.2535375    1.1375784   -4.9489818    6.2025193    2.3911159 
 1540000   0.79939059  -0.11199298    1.2513156    1.1285099   -4.9519445    6.2032601    2.3798255 
 1550000   0.80095586  -0.16281018    1.2506746    1.1307196   -4.9533135    6.2039881    2.3813943 
 1560000   0.79950422 -0.075544789    1.2584039    1.1286703   -4.9491699    6.2075738    2.3870743 
 1570000   0.79936479  -0.11250931    1.2491873    1.1284735   -4.9559009    6.2050882    2.3776608 
 1580000   0.80723499  -0.14408139    1.2619259     1.139584   -4.9420176    6.2039435    2.4015099 
 1590000   0.80247195  -0.12886529    1.2572103    1.1328599   -4.9460168    6.2032272    2.3900703 
 1600000   0.79545211  -0.11439043    1.2377666    1.1229499   -4.9641694     6.201936    2.3607166 
 1610000   0.79784662   -0.1648782    1.2650393    1.1263303   -4.9400322    6.2050715    2.3913696 
 1620000   0.80210575   -0.1465945    1.2462434     1.132343   -4.9543731    6.2006165    2.3785863 
 1630000   0.79202011  -0.17668931    1.2617755    1.1181049   -4.9415188    6.2032943    2.3798804 
 1640000   0.79845501  -0.13593969    1.2516768    1.1271892   -4.9536428    6.2053196    2.3788659 
 1650000   0.79738605  -0.13985125    1.2514155    1.1256801   -4.9541135     6.205529    2.3770956 
 1660000   0.79076091  -0.14869234    1.2542522    1.1163273   -4.9535202    6.2077724    2.3705795 
 1670000   0.80165559  -0.14726705    1.2567781    1.1317075   -4.9460412    6.2028193    2.3884855 
 1680000   0.80058208  -0.17331545    1.2507238     1.130192   -4.9537781    6.2045019    2.3809157 
 1690000   0.79791478  -0.12329529    1.2356854    1.1264265   -4.9710369    6.2067223    2.3621119 
 1700000   0.80008114  -0.17860813    1.2467992    1.1294848   -4.9553145    6.2021137    2.3762839 
 1710000   0.80016377  -0.10503398    1.2489434    1.1296014   -4.9522677    6.2012111    2.3785448 
 1720000   0.79726782  -0.18957536    1.2567928    1.1255132    -4.946848    6.2036408     2.382306 
 1730000    0.7997553  -0.16272419    1.2468982    1.1290248   -4.9570596    6.2039578     2.375923 
 1740000   0.80011684 -0.047405881    1.2654616    1.1295352     -4.94044    6.2059015    2.3949967 
 1750000   0.80444319  -0.13999064    1.2576199    1.1356428   -4.9478245    6.2054443    2.3932626 
 1760000    0.8022712  -0.20327108    1.2564353    1.1325765   -4.9502157     6.206651    2.3890118 
 1770000   0.79516974  -0.23903993    1.2652449    1.1225513   -4.9387836    6.2040285    2.3877962 
 1780000   0.80731266  -0.12825375    1.2548563    1.1396936   -4.9479879    6.2028442    2.3945499 
 1790000   0.79866689  -0.13020061    1.2502934    1.1274883   -4.9532665    6.2035599    2.3777816 
 1800000   0.79126101  -0.18407898     1.234439    1.1170333   -4.9672775    6.2017165    2.3514723 
 1810000   0.79522519  -0.22488517    1.2478708    1.1226296   -4.9593251    6.2071959    2.3705004 
 1820000   0.80466984   -0.1207758    1.2472564    1.1359627   -4.9541237    6.2013801    2.3832191 
 1830000   0.80134648  -0.17782064    1.2669738    1.1312711   -4.9389923     6.205966    2.3982449 
 1840000   0.79088009  -0.10916679     1.261018    1.1164955   -4.9426725    6.2036905    2.3775136 
 1850000   0.80166919  -0.15692213    1.2585074    1.1317267   -4.9465297    6.2050371     2.390234 
 1860000   0.80333345 -0.092008665    1.2559164    1.1340761   -4.9506672    6.2065835    2.3899925 
 1870000   0.80888315  -0.14776647    1.2512409    1.1419107   -4.9510975    6.2023384    2.3931515 
 1880000   0.79585885  -0.11804115    1.2622195    1.1235241   -4.9413382    6.2035577    2.3857436 
 1890000   0.80164198 -0.097022322    1.2454028    1.1316882    -4.955744    6.2011468     2.377091 
 1900000   0.79492696  -0.12356274    1.2615554    1.1222086   -4.9453435    6.2068989     2.383764 
 1910000   0.79829941   -0.2177955    1.2386726    1.1269695   -4.9658315    6.2045041    2.3656421 
 1920000   0.79790181  -0.16590982    1.2453034    1.1264082   -4.9589064    6.2042098    2.3717116 
 1930000    0.8035894  -0.19133898    1.2481922    1.1344374    -4.955279    6.2034712    2.3826296 
 1940000    0.7997465  -0.18347131    1.2502145    1.1290124   -4.9509563    6.2011708    2.3792269 
 1950000   0.79664659  -0.13316421    1.2516483    1.1246362   -4.9533368    6.2049851    2.3762845 
 1960000   0.79747972 -0.071734905    1.2617629    1.1258123   -4.9415584    6.2033213    2.3875752 
 1970000   0.79934187  -0.17343343    1.2761279    1.1284411   -4.9303565    6.2064845    2.4045691 
 1980000   0.80739742   -0.1364861    1.2507925    1.1398133   -4.9544446    6.2052371    2.3906058 
 1990000   0.79438464 -0.073692206    1.2658199     1.121443   -4.9370368    6.2028568    2.3872629 
 2000000   0.80499644  -0.15827249    1.2546189    1.1364238   -4.9459332    6.2005521    2.3910426 
 2010000   0.80551234  -0.19022334     1.259793    1.1371521     -4.94515     6.204943     2.396945 
 2020000   0.79488399  -0.15418304    1.2579385    1.1221479   -4.9463758    6.2043144    2.3800865 
 2030000   0.79623665  -0.19659256    1.2519604    1.1240575   -4.9516876     6.203648    2.3760179 
 2040000   0.79778766  -0.21715015     1.260307    1.1262471   -4.9471428    6.2074498    2.3865541 
 2050000   0.80212528  -0.17681935    1.2617285    1.1323705   -4.9432931    6.2050216     2.394099 
 2060000    0.8038909  -0.11241409    1.2616452    1.1348631   -4.9422645    6.2039096    2.3965083 
 2070000   0.80482994  -0.13548459    1.2508986    1.1361887   -4.9531799    6.2040785    2.3870873 
 2080000   0.80421056  -0.14130246    1.2743921    1.1353143   -4.9278165    6.2022086    2.4097065 
 2090000   0.80423636  -0.09467495    1.2724117    1.1353508   -4.9350674    6.2074791    2.4077625 
 2100000   0.80353589  -0.16671618    1.2368865    1.1343619   -4.9669313    6.2038178    2.3712484 
 2110000   0.79902302  -0.11169215    1.2623007     1.127991   -4.9425275    6.2048282    2.3902917 
 2120000   0.80002929  -0.12911138    1.2668432    1.1294116   -4.9389802    6.2058234    2.3962548 
 2130000   0.79488889  -0.12214817    1.2518755    1.1221548   -4.9476879    6.1995634    2.3740303 
 2140000   0.80485346  -0.17932976    1.2454761    1.1362219   -4.9570877    6.2025638     2.381698 
 2150000   0.80337678 -0.082035939    1.2546684    1.1341373   -4.9500625    6.2047309    2.3888057 
 2160000   0.79788159  -0.17129012    1.2501385    1.1263796   -4.9508349    6.2009734    2.3765182 
 2170000   0.80234348 -0.018265084     1.248208    1.1326786   -4.9564019      6.20461    2.3808866 
 2180000   0.80098739  -0.13737251    1.2548259    1.1307641   -4.9494678    6.2042938    2.3855901 
 2190000   0.80531976  -0.18603625    1.2451599    1.1368802   -4.9607154    6.2058753    2.3820401 
 2200000   0.80144237  -0.13829521    1.2365429    1.1314064   -4.9680266    6.2045695    2.3679494 
 2210000   0.79971671  -0.15732623    1.2384268    1.1289703    -4.965454    6.2038808    2.3673972 
 2220000   0.80557253  -0.13646064    1.2602734    1.1372371   -4.9447426     6.205016    2.3975104 
 2230000   0.80269889  -0.15644928    1.2605301    1.1331803   -4.9418654    6.2023954    2.3937104 
 2240000   0.79902833  -0.18991215    1.2539658    1.1279985   -4.9488479    6.2028138    2.3819644 
 2250000   0.80082609  -0.15988066     1.255028    1.1305364   -4.9511908    6.2062188    2.3855644 
 2260000   0.80069521  -0.18934306    1.2646169    1.1303517   -4.9426758    6.2072927    2.3949686 
 2270000   0.79572992  -0.12642308    1.2515084    1.1233421   -4.9512794    6.2027878    2.3748505 
 2280000   0.80411975  -0.13978098    1.2537249    1.1351861   -4.9507361     6.204461     2.388911 
 2290000   0.79560135  -0.18593313    1.2542904    1.1231606   -4.9496314    6.2039217     2.377451 
 2300000    0.8057671  -0.18986531    1.2633509    1.1375117   -4.9433105    6.2066614    2.4008626 
 2310000   0.80139146  -0.17187215    1.2616306    1.1313346   -4.9411873    6.2028179    2.3929652 
 2320000   0.80485449 -0.096770721    1.2452904    1.1362234   -4.9584411    6.2037315    2.3815138 
 2330000   0.79166544  -0.22979594    1.2610681    1.1176042   -4.9437453    6.2048134    2.3786723 
 2340000   0.79938298  -0.12722236    1.2441178    1.1284992   -4.9583985    6.2025163    2.3726169 
 2350000   0.79698392  -0.13372132    1.2561107    1.1251124   -4.9488073     6.204918    2.3812231 
 2360000   0.80185552 -0.066274183      1.24894    1.1319897   -4.9539338    6.2028739    2.3809297 
 2370000   0.79994476   -0.1439982    1.2530402    1.1292923   -4.9533269    6.2063671    2.3823325 
 2380000   0.79836306 -0.057683188    1.2394224    1.1270594   -4.9623686     6.201791    2.3664818 
 2390000   0.80539972  -0.13320146     1.256952    1.1369931   -4.9484827    6.2054347    2.3939451 
 2400000   0.80360548  -0.10957651    1.2398958    1.1344601   -4.9625652     6.202461    2.3743559 
 2410000   0.79919939   -0.1009332    1.2523395      1.12824   -4.9520975     6.204437    2.3805795 
 2420000   0.80044257  -0.12660074    1.2519011     1.129995   -4.9508679     6.202769    2.3818962 
 2430000   0.80273844  -0.16131105    1.2418701    1.1332361   -4.9637269     6.205597    2.3751062 
 2440000   0.79663323  -0.12305744    1.2497379    1.1246173    -4.954096    6.2038339    2.3743552 
 2450000   0.79673876   -0.1353731    1.2529041    1.1247663   -4.9530972    6.2060013    2.3776704 
 2460000   0.79930428  -0.13789539    1.2527311    1.1283881   -4.9503476    6.2030787    2.3811192 
 2470000   0.80360246  -0.10183703    1.2635025    1.1344559   -4.9414456    6.2049481    2.3979584 
 2480000   0.79633797 -0.094153878    1.2332411    1.1242005   -4.9718149    6.2050561    2.3574417 
 2490000   0.80285946  -0.16239503    1.2509374     1.133407   -4.9525129    6.2034503    2.3843444 
 2500000   0.80454808  -0.15715884    1.2463024    1.1357908   -4.9580881    6.2043905    2.3820932 
 2510000   0.80197882  -0.14857998    1.2673079    1.1321638   -4.9360943    6.2034022    2.3994716 
 2520000   0.80192236  -0.13854201    1.2421693    1.1320841   -4.9604137     6.202583    2.3742533 
 2530000   0.79669329  -0.16881491    1.2492408    1.1247021   -4.9549269    6.2041677    2.3739429 
 2540000   0.80177365  -0.14785754    1.2474422    1.1318741   -4.9549902    6.2024324    2.3793163 
 2550000   0.79534564  -0.16971102    1.2463403    1.1227996   -4.9589528    6.2052931    2.3691399 
 2560000   0.79495809  -0.10277791    1.2516207    1.1222525   -4.9521867    6.2038074    2.3738732 
 2570000    0.8041124  -0.10053598    1.2520156    1.1351758   -4.9531151    6.2051307    2.3871914 
 2580000   0.80090283  -0.22132299    1.2658273    1.1306448    -4.936667    6.2024943    2.3964721 
 2590000   0.80414073   -0.1091282    1.2546829    1.1352158   -4.9535715    6.2082544    2.3898987 
 2600000    0.8066647  -0.12309344    1.2439121    1.1387789   -4.9593194    6.2032314    2.3826909 
 2610000   0.79652008 -0.078727229    1.2586696    1.1244576   -4.9475588    6.2062285    2.3831272 
 2620000   0.80056612   -0.1257236    1.2475399    1.1301694   -4.9575927    6.2051326    2.3777093 
 2630000    0.8014031  -0.19400985    1.2424488     1.131351   -4.9572049    6.1996537    2.3737998 
 2640000   0.80014429  -0.13794337    1.2351661    1.1295739   -4.9659882    6.2011544    2.3647401 
 2650000   0.79962644  -0.13859107    1.2476882    1.1288429   -4.9560898     6.203778    2.3765311 
 2660000     0.803555  -0.22693882    1.2464103    1.1343889   -4.9572218    6.2036322    2.3807992 
 2670000   0.79757209  -0.12985738    1.2465895    1.1259427   -4.9566433    6.2032328    2.3725323 
 2680000   0.80476115  -0.10611542    1.2628909    1.1360916   -4.9455496    6.2084405    2.3989825 
 2690000   0.80337009   -0.1869804    1.2663941    1.1341278   -4.9384057    6.2047998    2.4005219 
 2700000   0.80565541  -0.15683594     1.263697    1.1373541   -4.9401037    6.2038007    2.4010511 
 2710000   0.80396693  -0.15700238    1.2572068    1.1349704   -4.9467324    6.2039392    2.3921772 
 2720000   0.79907431   -0.1339078    1.2616765    1.1280634   -4.9438636    6.2055401      2.38974 
 2730000   0.80074458  -0.12083464    1.2439181    1.1304214   -4.9596285    6.2035465    2.3743394 
 2740000   0.80138038  -0.16925786    1.2408683    1.1313189   -4.9639339    6.2048022    2.3721873 
 2750000    0.7932376  -0.22535112    1.2557963    1.1198237   -4.9467157    6.2025119      2.37562 
 2760000   0.80113859  -0.10583666     1.247276    1.1309776    -4.957996     6.205272    2.3782536 
 2770000   0.79687366  -0.12808573    1.2614466    1.1249568   -4.9428931    6.2043396    2.3864033 
 2780000   0.80374298  -0.17049056    1.2704806    1.1346543   -4.9382214    6.2087021    2.4051349 
 2790000   0.80046061  -0.13126571    1.2604754    1.1300205   -4.9435136    6.2039889    2.3904959 
 2800000   0.79456435   -0.1592407    1.2527416    1.1216967   -4.9520325    6.2047741    2.3744383 
 2810000   0.79841536  -0.14314048    1.2425769    1.1271332   -4.9586279    6.2012049    2.3697101 
 2820000   0.79892461  -0.12003764    1.2549451    1.1278521   -4.9508792    6.2058243    2.3827972 
 2830000   0.80319514  -0.15760874    1.2484691    1.1338809   -4.9542093    6.2026784    2.3823499 
 2840000   0.79622915  -0.13049092    1.2565019    1.1240469   -4.9484025    6.2049043    2.3805487 
 2850000   0.79578576   -0.1134187    1.2439694    1.1234209   -4.9572415    6.2012109    2.3673904 
 2860000   0.79854154  -0.11279218    1.2521081    1.1273113   -4.9514698    6.2035778    2.3794194 
 2870000   0.79235005  -0.17059664    1.2611877    1.1185707   -4.9438891    6.2050768    2.3797584 
 2880000   0.80872276 -0.098657193    1.2248725    1.1416843   -4.9782709    6.2031434    2.3665568 
 2890000   0.79643022  -0.16249446    1.2426128    1.1243307   -4.9606955    6.2033083    2.3669435 
 2900000   0.79843149  -0.16378031    1.2527683     1.127156   -4.9484841    6.2012523    2.3799242 
 2910000   0.80022222  -0.11634071    1.2514833    1.1296839   -4.9529684    6.2044517    2.3811673 
 2920000   0.79815513   -0.1443144    1.2485953    1.1267658   -4.9564873    6.2050826    2.3753611 
 2930000   0.80191075  -0.12405831    1.2629782    1.1320677   -4.9417167    6.2046949    2.3950458 
 2940000   0.79277686  -0.15570662    1.2412195    1.1191732    -4.960375    6.2015945    2.3603927 
 2950000   0.79372874  -0.12943889    1.2448152     1.120517   -4.9565303    6.2013455    2.3653322 
 2960000   0.79691325 -0.096204824    1.2508043    1.1250126   -4.9560049    6.2068092    2.3758169 
 2970000   0.79675851  -0.15737736    1.2548672    1.1247942   -4.9503615    6.2052287    2.3796614 
 2980000   0.80189581 -0.098550622    1.2604606    1.1320466   -4.9446329    6.2050935    2.3925072 
 2990000   0.79503277  -0.13721126    1.2535488    1.1223579   -4.9498696    6.2034183    2.3759067 
 3000000   0.79589894  -0.16885621     1.251252    1.1235807   -4.9553558    6.2066078    2.3748327 
 3010000   0.79731312  -0.16262546    1.2714998    1.1255771   -4.9331764    6.2046762     2.397077 
 3020000   0.79716924  -0.15173406    1.2636788     1.125374   -4.9418609    6.2055397    2.3890529 
 3030000   0.80369524  -0.16836331    1.2422691    1.1345869   -4.9609882    6.2032573    2.3768559 
 3040000   0.80077871  -0.12829826    1.2503909    1.1304696   -4.9561469    6.2065378    2.3808604 
 3050000   0.79521536  -0.23318531    1.2693216    1.1226157   -4.9343153    6.2036369    2.3919373 
 3060000    0.7988679  -0.16804511    1.2568365     1.127772   -4.9457849    6.2026214    2.3846085 
 3070000   0.80665317  -0.06634418    1.2383765    1.1387626    -4.963838    6.2022145    2.3771391 
 3080000   0.79944562  -0.15237182    1.2619464    1.1285876   -4.9449209    6.2068672     2.390534 
 3090000   0.79436286  -0.10175651    1.2614169    1.1214122   -4.9431927    6.2046096    2.3828291 
 3100000   0.80364834  -0.15859888    1.2525181    1.1345206   -4.9508336    6.2033517    2.3870388 
 3110000    0.7996229  -0.17984935    1.2429221    1.1288379   -4.9610831    6.2040052      2.37176 
 3120000   0.79751866  -0.10552434    1.2582915    1.1258673   -4.9444632    6.2027547    2.3841588 
 3130000   0.80643126  -0.19460467    1.2625147    1.1384493   -4.9396603     6.202175     2.400964 
 3140000   0.80163048  -0.12535268    1.2598532     1.131672   -4.9434155    6.2032686    2.3915252 
 3150000   0.79913491  -0.10589488    1.2643246     1.128149   -4.9417387    6.2060633    2.3924735 
 3160000   0.79550674  -0.19926674    1.2605714     1.123027   -4.9423892    6.2029606    2.3835985 
 3170000   0.79751472  -0.11658292    1.2642611    1.1258617   -4.9403601    6.2046212    2.3901228 
 3180000   0.79888163  -0.11720816    1.2611516    1.1277914    -4.943483    6.2046346     2.388943 
 3190000   0.79825409 -0.057272866    1.2502965    1.1269055   -4.9548954    6.2051919     2.377202 
 3200000   0.79979666  -0.12011421    1.2532883    1.1290832    -4.949202    6.2024903    2.3823715 
 3210000   0.80221904  -0.15970137    1.2502539    1.1325029    -4.954676    6.2049299    2.3827568 
 3220000   0.80393382   -0.1326598     1.244562    1.1349237   -4.9576705    6.2022325    2.3794857 
 3230000   0.79507272  -0.13618882    1.2514211    1.1224143    -4.951918    6.2033391    2.3738354 
 3240000   0.80325887  -0.20524268     1.257064    1.1339708   -4.9478712    6.2049352    2.3910348 
 3250000   0.79994451   -0.1614291    1.2703608    1.1292919     -4.93383    6.2041908    2.3996528 
 3260000    0.7961042  -0.19304959    1.2579851    1.1238705     -4.94514    6.2031251    2.3818556 
 3270000   0.80351286  -0.13277474    1.2606319    1.1343294   -4.9457169    6.2063488    2.3949613 
 3280000   0.79991475  -0.14812769    1.2706058    1.1292499   -4.9318988    6.2025046    2.3998557 
 3290000   0.80128213  -0.15087413    1.2634199    1.1311802   -4.9415377    6.2049576    2.3946002 
 3300000   0.80148442  -0.14005449    1.2534199    1.1314658   -4.9526421     6.206062    2.3848858 
 3310000    0.7954611  -0.14534379    1.2536807    1.1229626   -4.9530153    6.2066959    2.3766433 
 3320000   0.80105772  -0.18544518    1.2455355    1.1308634   -4.9602919    6.2058275     2.376399 
 3330000   0.79233543   -0.1124307    1.2679928    1.1185501    -4.936293    6.2042858    2.3865429 
 3340000   0.80075317  -0.17186148    1.2562908    1.1304335   -4.9482011    6.2044919    2.3867243 
 3350000   0.79865433  -0.13490659    1.2556443    1.1274705   -4.9484966    6.2041409    2.3831148 
 3360000   0.79959817  -0.11005977    1.2631162     1.128803   -4.9402646    6.2033808    2.3919192 
 3370000   0.79537549  -0.16975531     1.249305    1.1228418   -4.9553624    6.2046674    2.3721468 
 3380000   0.80469214  -0.11796778    1.2407586    1.1359942   -4.9614076    6.2021662    2.3767528 
 3390000   0.80567241  -0.12272894    1.2622457    1.1373781   -4.9427184    6.2049642    2.3996238 
 3400000   0.80363632  -0.13153502    1.2653279    1.1345037   -4.9395571     6.204885    2.3998316 
 3410000    0.8056557  -0.21744617    1.2572473    1.1373545   -4.9454199    6.2026672    2.3946018 
 3420000   0.80599653 -0.099000013    1.2577036    1.1378356   -4.9432178    6.2009214    2.3955393 
 3430000   0.80007602  -0.14768539    1.2626107    1.1294776   -4.9446877    6.2072984    2.3920883 
 3440000   0.79987236  -0.12828655    1.2589562    1.1291901   -4.9464087    6.2053649    2.3881463 
 3450000   0.80077775  -0.10818003    1.2578009    1.1304682   -4.9487362     6.206537    2.3882691 
 3460000   0.79864144  -0.13755167    1.2572087    1.1274523   -4.9486685    6.2058772    2.3846611 
 3470000   0.80195059  -0.10067667    1.2744034    1.1321239    -4.932428    6.2068314    2.4065273 
 3480000   0.79998167 -0.080341955     1.254519    1.1293444   -4.9510969    6.2056159    2.3838634 
 3490000   0.81305505  -0.13385928      1.24646    1.1478002   -4.9557415    6.2022014    2.3942602 
 3500000    0.8014827  -0.15075693     1.259637    1.1314634   -4.9445844    6.2042214    2.3911004 
 3510000   0.80078226  -0.11865833    1.2541547    1.1304746   -4.9502339    6.2043886    2.3846293 
 3520000   0.79816638  -0.12874716    1.2477409    1.1267817   -4.9543706    6.2021115    2.3745226 
 3530000   0.79984066   -0.1530793     1.236769    1.1291453   -4.9686517    6.2054207    2.3659143 
 3540000   0.80515359 -0.086855736    1.2503026    1.1366456   -4.9522631    6.2025657    2.3869482 
 3550000   0.79814217 -0.088420874     1.248024    1.1267475    -4.955088    6.2031119    2.3747715 
 3560000   0.79582061  -0.11185297    1.2485529    1.1234702   -4.9540222     6.202575     2.372023 
 3570000   0.79943661  -0.15419579    1.2530377    1.1285749   -4.9527026    6.2057403    2.3816126 
 3580000    0.7941616  -0.13049776    1.2526748    1.1211281   -4.9523507    6.2050255    2.3738029 
 3590000   0.80669304  -0.16820883    1.2444261    1.1388189   -4.9590485    6.2034747     2.383245 
 3600000   0.79920987 -0.096783764    1.2629673    1.1282548   -4.9431731    6.2061404    2.3912221 
 3610000   0.79757856  -0.23608434    1.2398983    1.1259519   -4.9628224    6.2027207    2.3658501 
 3620000   0.81111365  -0.11211086    1.2532405    1.1450595     -4.95073    6.2039705       2.3983 
 3630000    0.8019402  -0.11884464    1.2584871    1.1321093   -4.9454592    6.2039463    2.3905964 
 3640000   0.79583148  -0.17624189    1.2508152    1.1234855    -4.953365    6.2041802    2.3743007 
 3650000   0.79751259  -0.17951641    1.2553639    1.1258587   -4.9490074    6.2043713    2.3812227 
 3660000   0.80104816  -0.22858564    1.2401662    1.1308499   -4.9635288    6.2036949    2.3710161 
 3670000   0.80280931  -0.11927627    1.2361157    1.1333362   -4.9683702     6.204486    2.3694519 
 3680000   0.78948692  -0.11064128    1.2349869    1.1145288   -4.9691351     6.204122    2.3495157 
 3690000   0.79915537  -0.10839193    1.2624921    1.1281779    -4.941429    6.2039211      2.39067 
 3700000   0.79803357  -0.17994453    1.2534258    1.1265942   -4.9525859    6.2060117      2.38002 
 3710000   0.80505958  -0.14493058    1.2556332    1.1365129     -4.94749    6.2031232    2.3921461 
 3720000   0.79636736  -0.11506501    1.2426579     1.124242   -4.9633691     6.206027    2.3668999 
 3730000   0.80300995  -0.16899421    1.2548678    1.1336194   -4.9494633    6.2043311    2.3884872 
 3740000   0.80646224  -0.15626996    1.2440952    1.1384931   -4.9589384    6.2030336    2.3825883 
 3750000   0.79708037 -0.093508242    1.2486999    1.1252486   -4.9558756    6.2045755    2.3739485 
 3760000   0.80755088 -0.092962341    1.2574569    1.1400299   -4.9491838    6.2066407    2.3974869 
 3770000   0.79903946  -0.12352827    1.2538984    1.1280142   -4.9515974    6.2054958    2.3819126 
 3780000   0.79346887 -0.084537693    1.2472489    1.1201502   -4.9577042     6.204953     2.367399 
 3790000   0.79755319  -0.14577394    1.2506968     1.125916   -4.9514967    6.2021935    2.3766128 
 3800000   0.80190849 -0.089916517    1.2465798    1.1320645   -4.9567493    6.2033292    2.3786443 
 3810000   0.80096447   -0.1714677    1.2628293    1.1307318   -4.9386937    6.2015231    2.3935611 
 3820000   0.80061059  -0.12256593    1.2586578    1.1302322   -4.9417246    6.2003824    2.3888901 
 3830000    0.7992565  -0.15305164    1.2643123    1.1283206    -4.939633    6.2039453    2.3926329 
 3840000   0.80483922  -0.20920792    1.2412044    1.1362018    -4.961611    6.2028154    2.3774062 
 3850000   0.79929072   -0.1802764    1.2693359    1.1283689   -4.9336507    6.2029867    2.3977049 
 3860000    0.7970137  -0.11139376    1.2479845    1.1251545   -4.9547413    6.2027258    2.3731389 
 3870000   0.79056604  -0.14677462    1.2627115    1.1160522   -4.9426827    6.2053942    2.3787637 
 3880000    0.8061469 -0.082566384      1.26007    1.1380479   -4.9431152    6.2031852    2.3981179 
 3890000   0.80613462  -0.18275294    1.2479071    1.1380306   -4.9572827    6.2051898    2.3859377 
 3900000   0.79882501  -0.17730051    1.2559012    1.1277115   -4.9503506    6.2062518    2.3836127 
 3910000   0.80062862   -0.1842408    1.2489453    1.1302577   -4.9550478     6.203993    2.3792029 
 3920000   0.79707889  -0.20488325    1.2500558    1.1252465   -4.9540624    6.2041183    2.3753023 
 3930000   0.79397353  -0.14457569    1.2416102    1.1208626   -4.9607006    6.2023108    2.3624728 
 3940000   0.79856853  -0.14552849    1.2414553    1.1273494   -4.9638228    6.2052781    2.3688047 
 3950000   0.80174884  -0.11227347    1.2526304    1.1318391   -4.9530663    6.2056967    2.3844695 
 3960000   0.80283117  -0.11186487    1.2611311     1.133367   -4.9441528    6.2052839    2.3944981 
 3970000   0.80613417  -0.05011873    1.2591749    1.1380299   -4.9459389    6.2051139    2.3972049 
 3980000    0.8004473  -0.14908687    1.2520669    1.1300017   -4.9518931      6.20396    2.3820686 
 3990000   0.79578863  -0.10625804    1.2567694     1.123425   -4.9445208    6.2012902    2.3801944 
 4000000   0.80289164  -0.23564844     1.257708    1.1334524   -4.9455878    6.2032958    2.3911604 
 4010000   0.79863833  -0.12630436       1.2442     1.127448   -4.9622832    6.2064832    2.3716479 
 4020000   0.80367789 -0.072250761    1.2426779    1.1345624    -4.960782    6.2034599    2.3772403 
 4030000   0.80209081  -0.07156376    1.2577098    1.1323219   -4.9460083    6.2037181    2.3900317 
 4040000   0.80525359  -0.10447968    1.2629369    1.1367868   -4.9401496    6.2030865    2.3997237 
 4050000   0.79887695 -0.063808783    1.2547934    1.1277848   -4.9537617    6.2085551    2.3825782 
 4060000   0.79984847  -0.10910369    1.2613182    1.1291563   -4.9435605    6.2048787    2.3904746 
 4070000   0.79981367 -0.063502686    1.2505318    1.1291072   -4.9562275    6.2067593    2.3796389 
 4080000   0.80287647  -0.10058724    1.2328779     1.133431   -4.9718789    6.2047568    2.3663089 
 4090000    0.7969837  -0.16968895    1.2583063    1.1251121   -4.9438638    6.2021702    2.3834184 
 4100000   0.80178917  -0.11362981    1.2440493     1.131896   -4.9580532    6.2021025    2.3759453 
 4110000   0.80098836  -0.12586315    1.2333476    1.1307655   -4.9672134     6.200561    2.3641131 
 4120000    0.8052047  -0.12808076    1.2466294    1.1367178   -4.9561609    6.2027903    2.3833472 
 4130000   0.79934473  -0.16431533    1.2502934    1.1284452   -4.9532587    6.2035521    2.3787386 
 4140000   0.80852433  -0.15470416    1.2491271    1.1414041   -4.9576657    6.2067928    2.3905313 
 4150000   0.79121251  -0.19991133    1.2538594    1.1169648   -4.9462148    6.2000742    2.3708243 
 4160000   0.79973428 -0.075192961    1.2529035    1.1289951   -4.9501523    6.2030557    2.3818986 
 4170000   0.79948731 -0.094797651    1.2367505    1.1286465   -4.9683189    6.2050695     2.365397 
 4180000    0.8017683  -0.14662082    1.2400078    1.1318666   -4.9602232    6.2002311    2.3718744 
 4190000   0.80437077  -0.17698038    1.2630593    1.1355405   -4.9395031    6.2025624    2.3985998 
 4200000   0.80243617  -0.15699427    1.2374696    1.1328094   -4.9679518    6.2054213     2.370279 
 4210000   0.79549052 -0.073501476    1.2467926    1.1230042   -4.9584025    6.2051952    2.3697968 
 4220000    0.7957854  -0.11828519    1.2650231    1.1234204   -4.9403779     6.205401    2.3884435 
 4230000   0.79341567  -0.12035223    1.2534013    1.1200751   -4.9558763    6.2092776    2.3734764 
 4240000   0.80127301  -0.16871312    1.2508923    1.1311674    -4.953221    6.2041133    2.3820597 
 4250000   0.80166311  -0.19273602    1.2473769    1.1317181   -4.9537319    6.2011088     2.379095 
 4260000   0.79464903  -0.14873874    1.2420738    1.1218162   -4.9640628    6.2061366      2.36389 
 4270000   0.79554052  -0.12827684    1.2577435    1.1230747   -4.9465723    6.2043158    2.3808182 
 4280000   0.80356816  -0.09216015    1.2528353    1.1344075   -4.9556929    6.2085283    2.3872428 
 4290000   0.79633707   -0.1159234    1.2584824    1.1241992   -4.9464017    6.2048841    2.3826817 
 4300000   0.79819857  -0.16428391    1.2535231    1.1268271   -4.9495095    6.2030326    2.3803502 
 4310000   0.80053731  -0.16721428    1.2467475    1.1301288   -4.9559987    6.2027462    2.3768762 
 4320000   0.80101252   -0.1216681    1.2529141    1.1307996    -4.950601    6.2035151    2.3837138 
 4330000    0.7996477  -0.15246456    1.2560718    1.1288729   -4.9494088    6.2054807    2.3849447 
 4340000   0.80312142  -0.13175966    1.2535375    1.1337768   -4.9527231    6.2062605    2.3873142 
 4350000   0.79440403  -0.16409897    1.2630792    1.1214703   -4.9407752    6.2038544    2.3845495 
 4360000    0.7921762  -0.12502237    1.2475533    1.1183253   -4.9567734    6.2043267    2.3658785 
 4370000   0.80454218  -0.10775635    1.2492431    1.1357825    -4.955524    6.2047671    2.3850256 
 4380000   0.80909485  -0.12856374    1.2554146    1.1422096   -4.9502028    6.2056174    2.3976242 
 4390000   0.79222844  -0.17102374    1.2664975     1.118399   -4.9363938    6.2028913    2.3848965 
 4400000   0.79470327  -0.10449954    1.2359556    1.1218928   -4.9660921    6.2020477    2.3578484 
 4410000   0.79416901  -0.19286605    1.2619968    1.1211386   -4.9446306    6.2066274    2.3831353 
 4420000   0.79830801  -0.17452745    1.2543553    1.1269816   -4.9470198    6.2013751    2.3813369 
 4430000   0.79462275  -0.21173353    1.2452231    1.1217791   -4.9564949     6.201718    2.3670022 
 4440000   0.80318784  -0.11232157     1.253828    1.1338706   -4.9480131    6.2018412    2.3876986 
 4450000    0.8051461  -0.09780355    1.2534795    1.1366351   -4.9500752    6.2035547    2.3901146 
 4460000   0.80035456 -0.090807159    1.2360789    1.1298708   -4.9690566    6.2051355    2.3659497 
 4470000   0.79865109 -0.095220111     1.251742     1.127466   -4.9550511    6.2067931     2.379208 
 4480000   0.80136564 -0.093317427    1.2450419    1.1312981   -4.9593498    6.2043917      2.37634 
 4490000   0.79924877  -0.20202491    1.2687022    1.1283097   -4.9348184    6.2035206    2.3970119 
 4500000   0.79654475  -0.16818256    1.2427725    1.1244924   -4.9579056    6.2006782     2.367265 
 4510000   0.80688869  -0.10853871    1.2576031    1.1390951   -4.9457791    6.2033822    2.3966981 
 4520000   0.80507891  -0.17336582    1.2591705    1.1365402   -4.9441664    6.2033369    2.3957107 
 4530000   0.80202406  -0.14294317    1.2733172    1.1322276   -4.9316207    6.2049379    2.4055448 
 4540000   0.79967845  -0.16589927    1.2499796    1.1289163   -4.9581339    6.2081136    2.3788959 
 4550000   0.79728908  -0.13509992    1.2553802    1.1255432   -4.9483407     6.203721    2.3809234 
 4560000   0.80251931  -0.14206099    1.2381763    1.1329268   -4.9670234    6.2051997    2.3711031 
 4570000    0.8041884  -0.17475053     1.249436    1.1352831   -4.9544256    6.2038616    2.3847191 
 4580000   0.80337241  -0.15825944    1.2574372    1.1341311   -4.9492873    6.2067245    2.3915683 
 4590000   0.79937722  -0.12099431    1.2503086    1.1284911   -4.9520278    6.2023365    2.3787997 
 4600000   0.79767772  -0.18561249    1.2482676    1.1260919   -4.9570377    6.2053053    2.3743594 
 4610000   0.79626188  -0.14548971    1.2478274    1.1240931   -4.9576856     6.205513    2.3719205 
 4620000   0.79518131  -0.11017277    1.2538394    1.1225676   -4.9504952    6.2043347    2.3764071 
 4630000   0.79657261  -0.15423332    1.2547079    1.1245317    -4.948924    6.2036319    2.3792397 
 4640000   0.80186619  -0.14191132    1.2532655    1.1320048   -4.9505831    6.2038486    2.3852703 
 4650000   0.80743087  -0.10926976    1.2520713    1.1398605   -4.9533967    6.2054679    2.3919318 
 4660000   0.80211577  -0.13117624    1.2400444    1.1323571   -4.9633115    6.2033558    2.3724015 
 4670000   0.80067372  -0.15307335    1.2589027    1.1303213     -4.94384    6.2027427    2.3892241 
 4680000    0.7977708  -0.11144824    1.2606035    1.1262233    -4.941503    6.2021065    2.3868268 
 4690000   0.80464627  -0.17488442    1.2504648    1.1359294   -4.9544722    6.2049369    2.3863942 
 4700000   0.80299309 -0.080611465     1.254808    1.1335956   -4.9478516    6.2026596    2.3884036 
 4710000   0.79530072  -0.17957693    1.2558905    1.1227362    -4.951775    6.2076655    2.3786267 
 4720000   0.79958063  -0.13561143    1.2515989    1.1287782   -4.9502519    6.2018508    2.3803771 
 4730000   0.79918971  -0.20220705    1.2557339    1.1282263   -4.9507095    6.2064434    2.3839602 
 4740000   0.80106647  -0.11663139    1.2704908    1.1308758   -4.9376429    6.2081337    2.4013666 
 4750000   0.79778382  -0.11816182    1.2549866    1.1262416   -4.9479156    6.2029022    2.3812282 
 4760000   0.80125364  -0.18822568    1.2413779      1.13114   -4.9592095    6.2005874    2.3725179 
 4770000   0.80812769   -0.1163099    1.2386167    1.1408442   -4.9634622    6.2020789    2.3794609 
 4780000   0.80104602 -0.086472277    1.2608118    1.1308469   -4.9425656    6.2033774    2.3916587 
 4790000   0.80386975  -0.13928354    1.2537163    1.1348332    -4.951075    6.2047912    2.3885495 
 4800000   0.80728666  -0.11739008    1.2496648    1.1396569   -4.9537167    6.2033815    2.3893217 
 4810000   0.80875125 -0.099702639    1.2387738    1.1417245   -4.9648976    6.2036714    2.3804983 
 4820000   0.80700114  -0.13737146    1.2413452    1.1392538   -4.9650904    6.2064355     2.380599 
 4830000    0.8046827  -0.16255703    1.2429537    1.1359809   -4.9580839    6.2010376    2.3789345 
 4840000   0.80004591  -0.20789047    1.2433291     1.129435   -4.9605307    6.2038598    2.3727641 
 4850000   0.79984217   -0.1510334     1.254379    1.1291474     -4.95154     6.205919    2.3835265 
 4860000     0.802058  -0.24062164    1.2428464    1.1322756   -4.9607662    6.2036126     2.375122 
 4870000   0.79898278  -0.21976027    1.2490822    1.1279342   -4.9538052    6.2028874    2.3770164 
 4880000   0.80287659  -0.13638389    1.2507827    1.1334312   -4.9518494    6.2026321    2.3842139 
 4890000   0.80309212  -0.16180818    1.2536149    1.1337354    -4.950092    6.2037069    2.3873504 
 4900000   0.80014273  -0.13717916    1.2553321    1.1295717   -4.9479809    6.2033129    2.3849038 
 4910000   0.79650062  -0.16375766    1.2755317    1.1244301   -4.9309838    6.2065155    2.3999618 
 4920000   0.80597236  -0.15337402    1.2435062    1.1378015   -4.9613958     6.204902    2.3813077 
 4930000   0.80255546  -0.13051749    1.2520634    1.1329778   -4.9496345    6.2016979    2.3850412 
 4940000   0.80484172  -0.15612987    1.2401768    1.1362054   -4.9609534    6.2011302    2.3763822 
 4950000   0.79971323  -0.12826645    1.2451948    1.1289654   -4.9575671    6.2027619    2.3741602 
 4960000   0.80354921 -0.080079096    1.2483404    1.1343807   -4.9538719    6.2022124    2.3827212 
 4970000   0.79402505   -0.1189367    1.2453917    1.1209353   -4.9577687    6.2031604     2.366327 
 4980000    0.7996303  -0.12578242    1.2471071    1.1288483   -4.9550663    6.2021733    2.3759554 
 4990000   0.79487474  -0.12773097    1.2474188    1.1221348   -4.9595382     6.206957    2.3695536 
 5000000   0.80046257  -0.17207482    1.2411036    1.1300233   -4.9604993    6.2016029    2.3711269 
 5010000   0.80922635 -0.081562272    1.2582087    1.1423952   -4.9461953     6.204404    2.4006039 
 5020000   0.79809976  -0.13200246    1.2432843    1.1266876   -4.9597292    6.2030135    2.3699719 
 5030000   0.80529571 -0.093955451    1.2638723    1.1368463   -4.9406257    6.2044979    2.4007185 
 5040000    0.8017829  -0.13932954    1.2407585    1.1318872   -4.9648828    6.2056412    2.3726457 
 5050000   0.80489182  -0.15445842    1.2470433    1.1362761   -4.9569184    6.2039618    2.3833194 
 5060000   0.79466249 -0.099569819    1.2474717    1.1218352   -4.9587746    6.2062464    2.3693069 
 5070000   0.80275146  -0.15035712    1.2440051    1.1332545   -4.9603014    6.2043065    2.3772596 
 5080000   0.79900877  -0.14493432    1.2550449    1.1279709   -4.9477433    6.2027883    2.3830159 
 5090000   0.79975043  -0.13169522    1.2564944    1.1290179     -4.94709    6.2035843    2.3855123 
 5100000   0.80209039  -0.12156012    1.2522559    1.1323213   -4.9526144    6.2048702    2.3845771 
 5110000   0.79883005  -0.16237795    1.2566537    1.1277186   -4.9447703    6.2014239    2.3843723 
 5120000   0.79278488   -0.1841319    1.2640023    1.1191846   -4.9420449    6.2060472    2.3831869 
 5130000   0.79408797 -0.090359824    1.2435057    1.1210241   -4.9601607    6.2036664    2.3645298 
 5140000   0.80513043  -0.13789451    1.2444208    1.1366129   -4.9573069    6.2017277    2.3810337 
 5150000   0.80031839  -0.14111815    1.2522984    1.1298197    -4.948404    6.2007024    2.3821181 
 5160000    0.7968916  -0.20490883    1.2545626    1.1249821   -4.9487957    6.2033583    2.3795446 
 5170000   0.80889055  -0.13100465    1.2589925    1.1419211   -4.9465869    6.2055794    2.4009136 
 5180000   0.79863479  -0.15128162    1.2464928     1.127443   -4.9544147    6.2009076    2.3739358 
 5190000   0.79733567  -0.20365877    1.2616926     1.125609   -4.9411411    6.2028337    2.3873016 
 5200000   0.79858149  -0.12688173    1.2526621    1.1273677    -4.953187    6.2058491    2.3800298 
 5210000    0.8100525   -0.1564415    1.2476756    1.1435615   -4.9575018    6.2051774    2.3912371 
 5220000   0.80375014  -0.15382346     1.245116    1.1346644   -4.9582838    6.2033998    2.3797804 
 5230000   0.80329263  -0.13712297    1.2482921    1.1340185   -4.9556995    6.2039915    2.3823106 
 5240000    0.8015211  -0.18068096    1.2523712    1.1315176   -4.9531509    6.2055221    2.3838888 
 5250000   0.80076648  -0.11790866    1.2482749    1.1304523   -4.9544103    6.2026852    2.3787272 
 5260000   0.79772918  -0.18358519    1.2537889    1.1261645   -4.9510391     6.204828    2.3799534 
 5270000   0.80489855  -0.14652545    1.2547386    1.1362856   -4.9459746    6.2007132    2.3910242 
 5280000   0.79393062  -0.20247867    1.2575599     1.120802   -4.9446305    6.2021904    2.3783619 
 5290000   0.80594522  -0.13157368    1.2469151    1.1377632   -4.9581022    6.2050173    2.3846783 
 5300000   0.80078885  -0.16335633     1.261158    1.1304839    -4.945718     6.206876    2.3916419 
 5310000   0.79737265  -0.11043775    1.2682004    1.1256612   -4.9364186     6.204619    2.3938616 
 5320000   0.79635232  -0.14342485    1.2588925    1.1242208   -4.9469619    6.2058544    2.3831132 
 5330000   0.79887887  -0.19340298    1.2645944    1.1277875   -4.9402568    6.2048512     2.392382 
 5340000   0.79591242  -0.16311815    1.2634379    1.1235998   -4.9406023    6.2040402    2.3870377 
 5350000   0.80215028  -0.16143962    1.2491938    1.1324058    -4.953572    6.2027657    2.3815996 
 5360000   0.79958558  -0.08597917    1.2670442    1.1287852   -4.9369696    6.2040138    2.3958294 
 5370000   0.80540134  -0.21801519    1.2670585    1.1369954    -4.935764    6.2028225    2.4040539 
 5380000    0.7995686  -0.16112311     1.249395    1.1287612   -4.9537137    6.2031087    2.3781563 
 5390000   0.80953324  -0.13223935     1.274522    1.1428284     -4.93162     6.206142    2.4173505 
 5400000   0.79750376  -0.11456307    1.2502099    1.1258463   -4.9528086    6.2030185    2.3760562 
 5410000    0.8010318   -0.1324315    1.2586864    1.1308268    -4.946333    6.2050194    2.3895132 
 5420000   0.80069744  -0.17911811    1.2619501    1.1303548   -4.9405227    6.2024729     2.392305 
 5430000   0.79681804  -0.16913885    1.2703905    1.1248782    -4.934853    6.2052435    2.3952687 
 5440000   0.80413153    -0.144778    1.2410824    1.1352028   -4.9617726    6.2028551    2.3762852 
 5450000   0.79690056  -0.12212818    1.2490434    1.1249947   -4.9567903    6.2058336    2.3740381 
 5460000   0.79040317  -0.12683669    1.2462238    1.1158223   -4.9571031     6.203327    2.3620461 
 5470000   0.80175553  -0.15237471    1.2613619    1.1318485   -4.9450531    6.2064149    2.3932104 
 5480000   0.79628853  -0.10784527    1.2537291    1.1241307   -4.9480831    6.2018122    2.3778598 
 5490000    0.8001848  -0.12217136     1.251171    1.1296311   -4.9534067    6.2045778    2.3808022 
 5500000   0.79905239  -0.16564905    1.2528907    1.1280325   -4.9489622    6.2018529    2.3809232 
 5510000   0.80258915  -0.11956952    1.2509229    1.1330254   -4.9551347    6.2060576    2.3839483 
 5520000   0.79708832  -0.15618785    1.2556935    1.1252598   -4.9475251    6.2032186    2.3809533 
 5530000   0.80002741  -0.19024707    1.2423332    1.1294089   -4.9628738    6.2052071    2.3717421 
 5540000   0.79637886  -0.13147094    1.2402896    1.1242582   -4.9637283    6.2040179    2.3645478 
 5550000   0.79772298 -0.091058062    1.2544348    1.1261557   -4.9485202     6.202955    2.3805906 
 5560000   0.80330393  -0.14624268     1.262412    1.1340344    -4.942636     6.205048    2.3964464 
 5570000   0.80440161  -0.16348533    1.2435195     1.135584   -4.9600402    6.2035597    2.3791036 
 5580000    0.8026158  -0.16419918    1.2449642     1.133063   -4.9571196    6.2020838    2.3780272 
 5590000   0.79441022  -0.16246841    1.2529013    1.1214791   -4.9482395    6.2011408    2.3743804 
 5600000   0.79468668 -0.076142361    1.2590944    1.1218694   -4.9464913    6.2055857    2.3809638 
 5610000   0.80673762  -0.20846932     1.263143    1.1388818   -4.9387766    6.2019196    2.4020248 
 5620000   0.80580893  -0.18173981    1.2454654    1.1375708    -4.954992    6.2004575    2.3830362 
 5630000   0.80311297   -0.1832751    1.2528775    1.1337649   -4.9466101    6.1994876    2.3866423 
 5640000   0.80265522   -0.1220816      1.25061    1.1331187   -4.9523767    6.2029867    2.3837287 
 5650000   0.80123974  -0.13723579    1.2566184    1.1311204   -4.9490594    6.2056778    2.3877388 
 5660000   0.79692918  -0.19350811    1.2549269    1.1250351   -4.9489205    6.2038474    2.3799621 
 5670000   0.80194416  -0.12206191    1.2417595    1.1321148     -4.96228    6.2040395    2.3738744 
 5680000   0.79841512  -0.11030304    1.2391347    1.1271328   -4.9648078    6.2039424    2.3662675 
 5690000   0.80427958  -0.20042683    1.2561474    1.1354118   -4.9433673    6.1995147    2.3915592 
 5700000   0.80421509  -0.16072261    1.2542523    1.1353207   -4.9489873    6.2032396     2.389573 
 5710000    0.8058242  -0.12074718    1.2509801    1.1375923   -4.9561867    6.2071669    2.3885725 
 5720000   0.80009722 -0.065476018    1.2444896    1.1295075   -4.9600924    6.2045821    2.3739971 
 5730000    0.8018822  -0.10067912    1.2466064    1.1320274   -4.9569109    6.2035173    2.3786338 
 5740000   0.80269414  -0.10430603    1.2475937    1.1331736   -4.9561924    6.2037862    2.3807673 
 5750000   0.80369539  -0.16886348    1.2435113    1.1345871   -4.9575614    6.2010728    2.3780984 
 5760000   0.80713346  -0.11242563    1.2545819    1.1394406   -4.9500517    6.2046335    2.3940225 
 5770000   0.79807008  -0.12482719    1.2601334    1.1266458   -4.9464599    6.2065934    2.3867792 
 5780000   0.79051879  -0.12792572    1.2540835    1.1159855   -4.9497338    6.2038173     2.370069 
 5790000   0.79778652  -0.22254062    1.2533356    1.1262454   -4.9531913     6.206527    2.3795811 
 5800000   0.80245781  -0.17917071      1.23858      1.13284   -4.9655199    6.2040999      2.37142 
 5810000   0.79810841  -0.19393233    1.2564792    1.1266999   -4.9466218     6.203101     2.383179 
 5820000   0.80709672  -0.19408349    1.2469971    1.1393888   -4.9573726    6.2043696    2.3863858 
 5830000   0.79743922  -0.12738284    1.2645174    1.1257551   -4.9407281    6.2052456    2.3902726 
 5840000    0.7972779  -0.16023256    1.2445608    1.1255274   -4.9606086    6.2051695    2.3700882 
 5850000   0.80478869  -0.14730974    1.2518567    1.1361305   -4.9528856    6.2047423    2.3879872 
 5860000   0.80250611 -0.072130562    1.2608324    1.1329082   -4.9419824    6.2028148    2.3937405 
 5870000   0.79899879  -0.17465857    1.2568626    1.1279568   -4.9468752    6.2037378    2.3848194 
 5880000   0.80119071  -0.19692194    1.2438294    1.1310512   -4.9607784    6.2046077    2.3748806 
 5890000   0.80150573  -0.17462986    1.2530842    1.1314959   -4.9541761    6.2072603    2.3845801 
 5900000   0.80625186 -0.069533416       1.2628    1.1381961   -4.9397444    6.2025444    2.4009961 
 5910000   0.80305861 -0.094879379     1.253129    1.1336881   -4.9515361    6.2046651    2.3868171 
 5920000   0.79743148  -0.10303459    1.2572054    1.1257442   -4.9434806     6.200686    2.3829496 
 5930000   0.80395326  -0.15761609    1.2607269    1.1349511   -4.9431982     6.203925     2.395678 
 5940000   0.79600447  -0.16854808    1.2540705    1.1237297   -4.9526706    6.2067411    2.3778002 
 5950000   0.79444215  -0.14637603    1.2360967    1.1215242   -4.9640427    6.2001394    2.3576209 
 5960000   0.79912192  -0.21295676    1.2610951    1.1281306     -4.94673    6.2078251    2.3892257 
 5970000   0.79767659  -0.14336292    1.2474693    1.1260903   -4.9539946    6.2014639    2.3735596 
 5980000   0.79317377  -0.20976354    1.2599904    1.1197336   -4.9446251    6.2046156     2.379724 
 5990000   0.79276087   -0.1731686    1.2352596    1.1191507   -4.9680367    6.2032963    2.3544103 
 6000000     0.803384  -0.11943976    1.2512111    1.1341475   -4.9532066    6.2044178    2.3853586 
Loop time of 91772.8 on 216 procs for 6000000 steps with 28900 atoms

Performance: 28243.669 tau/day, 65.379 timesteps/s
99.8% CPU use with 216 MPI tasks x 1 OpenMP threads

MPI task timing breakdown:
Section |  min time  |  avg time  |  max time  |%varavg| %total
---------------------------------------------------------------
Pair    | 1225       | 1515.3     | 1904.4     | 320.9 |  1.65
Bond    | 15.775     | 19.868     | 23.713     |  34.1 |  0.02
Kspace  | 83437      | 83910      | 84224      |  45.5 | 91.43
Neigh   | 870.19     | 899.62     | 936.11     |  54.0 |  0.98
Comm    | 1366.3     | 1618.8     | 1851.4     | 293.0 |  1.76
Output  | 2.8391     | 2.8885     | 2.8985     |   0.3 |  0.00
Modify  | 3126.7     | 3274.2     | 3435.8     | 134.7 |  3.57
Other   |            | 531.7      |            |       |  0.58

Nlocal:    133.796 ave 215 max 13 min
Histogram: 4 1 5 0 6 125 39 18 12 6
Nghost:    974.403 ave 1421 max 424 min
Histogram: 3 4 3 9 25 108 44 12 7 1
Neighs:    5139.59 ave 11942 max 235 min
Histogram: 6 4 6 120 35 17 15 7 4 2

Total # of neighbors = 1110152
Ave neighs/atom = 38.4136
Ave special neighs/atom = 0.602076
Neighbor list builds = 806458
Dangerous builds = 0
System init for write_restart ...
PPPM initialization ...
  using 12-bit tables for long-range coulomb (src/kspace.cpp:332)
  G vector (1/distance) = 1.23381
  grid = 120 120 120
  stencil order = 5
  estimated absolute RMS force accuracy = 0.000120552
  estimated relative force accuracy = 0.000120552
  using double precision FFTW3
  3d grid and FFT values/proc = 19683 8400
WARNING: Neighbor exclusions used with KSpace solver may give inconsistent Coulombic energies (src/neighbor.cpp:486)
Neighbor list info ...
  update every 1 steps, delay 0 steps, check yes
  max neighbors/atom: 2000, page size: 100000
  master list distance cutoff = 2.8
  ghost atom cutoff = 2.8
  binsize = 1.4, bins = 24 24 24
  7 neighbor lists, perpetual/occasional/extra = 2 5 0
  (1) pair lj/cut, perpetual
      attributes: half, newton on
      pair build: half/bin/newton
      stencil: half/bin/3d/newton
      bin: standard
  (2) pair coul/long, perpetual, skip from (1)
      attributes: half, newton on
      pair build: skip
      stencil: none
      bin: none
  (3) compute rdf, occasional, copy from (1)
      attributes: half, newton on
      pair build: copy
      stencil: none
      bin: none
  (4) compute rdf, occasional, copy from (1)
      attributes: half, newton on
      pair build: copy
      stencil: none
      bin: none
  (5) compute rdf, occasional, copy from (1)
      attributes: half, newton on
      pair build: copy
      stencil: none
      bin: none
  (6) compute rdf, occasional, copy from (1)
      attributes: half, newton on
      pair build: copy
      stencil: none
      bin: none
  (7) compute rdf, occasional, copy from (1)
      attributes: half, newton on
      pair build: copy
      stencil: none
      bin: none
PPPM initialization ...
  using 12-bit tables for long-range coulomb (src/kspace.cpp:332)
  G vector (1/distance) = 1.23381
  grid = 120 120 120
  stencil order = 5
  estimated absolute RMS force accuracy = 0.000120552
  estimated relative force accuracy = 0.000120552
  using double precision FFTW3
  3d grid and FFT values/proc = 19683 8400
WARNING: Neighbor exclusions used with KSpace solver may give inconsistent Coulombic energies (src/neighbor.cpp:486)
Neighbor list info ...
  update every 1 steps, delay 0 steps, check yes
  max neighbors/atom: 2000, page size: 100000
  master list distance cutoff = 2.8
  ghost atom cutoff = 2.8
  binsize = 1.4, bins = 24 24 24
  7 neighbor lists, perpetual/occasional/extra = 2 5 0
  (1) pair lj/cut, perpetual
      attributes: half, newton on
      pair build: half/bin/newton
      stencil: half/bin/3d/newton
      bin: standard
  (2) pair coul/long, perpetual, skip from (1)
      attributes: half, newton on
      pair build: skip
      stencil: none
      bin: none
  (3) compute rdf, occasional, copy from (1)
      attributes: half, newton on
      pair build: copy
      stencil: none
      bin: none
  (4) compute rdf, occasional, copy from (1)
      attributes: half, newton on
      pair build: copy
      stencil: none
      bin: none
  (5) compute rdf, occasional, copy from (1)
      attributes: half, newton on
      pair build: copy
      stencil: none
      bin: none
  (6) compute rdf, occasional, copy from (1)
      attributes: half, newton on
      pair build: copy
      stencil: none
      bin: none
  (7) compute rdf, occasional, copy from (1)
      attributes: half, newton on
      pair build: copy
      stencil: none
      bin: none
Setting up Verlet run ...
  Unit style    : lj
  Current step  : 6000000
  Time step     : 0.005
Per MPI rank memory allocation (min/avg/max) = 18.62 | 20.05 | 20.65 Mbytes
Step Lx Ly Lz Press Pxx Pyy Pzz PotEng Temp 
 6000000    32.853982    32.853982    32.853982 -0.0080058191  -0.01996892  0.049924485 -0.053973023    1.2512111     0.803384 
 6000010    33.511062     32.53029     32.53029 -0.077294542   -1.0719566   0.39280165   0.44727134    1.2650805   0.80819877 
 6000020    34.168142     32.21598     32.21598  0.063034244   -1.1697485   0.67881675   0.68003452    1.2918149   0.81954498 
 6000030    34.825221    31.910609    31.910609   0.15598268   -1.3764159   0.90196026   0.94240368    1.3199862   0.83347253 
 6000040    35.482301    31.613759    31.613759   0.24856359   -1.3706577    1.0684695     1.047879    1.3383093   0.85732433 
 6000050    36.139381    31.325043    31.325043   0.33774736   -1.2665229    1.1613575    1.1184075    1.3602019   0.87736782 
 6000060     36.79646    31.044095    31.044095   0.43530215   -1.2045751    1.2296903    1.2807912    1.3803333   0.89699555 
 6000070     37.45354    30.770574    30.770574   0.51235013   -1.0805807    1.2379034    1.3797277    1.4002801   0.91582696 
 6000080    38.110619    30.504157    30.504157   0.58044139  -0.99153486    1.3333678    1.3994912    1.4230459    0.9306121 
 6000090    38.767699    30.244542    30.244542   0.68890303  -0.91028989    1.5069417    1.4700573    1.4464538   0.94462557 
 6000100    39.424779    29.991445    29.991445   0.71079956  -0.86958025    1.5304065    1.4715725    1.4624989   0.96208879 
Loop time of 1.92269 on 216 procs for 100 steps with 28900 atoms

Performance: 22468.531 tau/day, 52.010 timesteps/s
99.8% CPU use with 216 MPI tasks x 1 OpenMP threads

MPI task timing breakdown:
Section |  min time  |  avg time  |  max time  |%varavg| %total
---------------------------------------------------------------
Pair    | 0.0021877  | 0.024504   | 0.059674   |   6.0 |  1.27
Bond    | 4.6968e-05 | 0.00025041 | 0.00063396 |   0.0 |  0.01
Kspace  | 1.3309     | 1.3655     | 1.3886     |   0.9 | 71.02
Neigh   | 0.047462   | 0.050809   | 0.053932   |   0.5 |  2.64
Comm    | 0.0324     | 0.041888   | 0.058744   |   2.3 |  2.18
Output  | 0.013919   | 0.019129   | 0.024944   |   1.4 |  0.99
Modify  | 0.21545    | 0.26281    | 0.31661    |   3.9 | 13.67
Other   |            | 0.1578     |            |       |  8.21

Nlocal:    133.796 ave 215 max 13 min
Histogram: 3 3 2 2 7 113 49 19 15 3
Nghost:    979.653 ave 1399 max 421 min
Histogram: 3 4 2 6 23 97 57 17 6 1
Neighs:    5141.03 ave 12095 max 246 min
Histogram: 6 4 5 127 31 18 14 7 3 1

Total # of neighbors = 1110463
Ave neighs/atom = 38.4243
Ave special neighs/atom = 0.602076
Neighbor list builds = 49
Dangerous builds = 0
PPPM initialization ...
  using 12-bit tables for long-range coulomb (src/kspace.cpp:332)
  G vector (1/distance) = 1.24062
  grid = 135 120 120
  stencil order = 5
  estimated absolute RMS force accuracy = 0.000107236
  estimated relative force accuracy = 0.000107236
  using double precision FFTW3
  3d grid and FFT values/proc = 21141 9450
WARNING: Neighbor exclusions used with KSpace solver may give inconsistent Coulombic energies (src/neighbor.cpp:486)
Neighbor list info ...
  update every 1 steps, delay 0 steps, check yes
  max neighbors/atom: 2000, page size: 100000
  master list distance cutoff = 2.8
  ghost atom cutoff = 2.8
  binsize = 1.4, bins = 29 22 22
  7 neighbor lists, perpetual/occasional/extra = 2 5 0
  (1) pair lj/cut, perpetual
      attributes: half, newton on
      pair build: half/bin/newton
      stencil: half/bin/3d/newton
      bin: standard
  (2) pair coul/long, perpetual, skip from (1)
      attributes: half, newton on
      pair build: skip
      stencil: none
      bin: none
  (3) compute rdf, occasional, copy from (1)
      attributes: half, newton on
      pair build: copy
      stencil: none
      bin: none
  (4) compute rdf, occasional, copy from (1)
      attributes: half, newton on
      pair build: copy
      stencil: none
      bin: none
  (5) compute rdf, occasional, copy from (1)
      attributes: half, newton on
      pair build: copy
      stencil: none
      bin: none
  (6) compute rdf, occasional, copy from (1)
      attributes: half, newton on
      pair build: copy
      stencil: none
      bin: none
  (7) compute rdf, occasional, copy from (1)
      attributes: half, newton on
      pair build: copy
      stencil: none
      bin: none
Setting up Verlet run ...
  Unit style    : lj
  Current step  : 6000100
  Time step     : 0.005
Per MPI rank memory allocation (min/avg/max) = 18.77 | 20.2 | 20.8 Mbytes
Step Lx Ly Lz Press Pxx Pyy Pzz PotEng Temp 
 6000100    39.424779    29.991445    29.991445    0.5397004    -1.279956    1.9707829    0.9282743    1.4699096   0.96208879 
 6010000    39.424779    29.991445    29.991445  -0.10464273 -0.087116156   -0.1585979 -0.068214138    1.2596268   0.80386523 
 6020000    39.424779    29.991445    29.991445  -0.11705664  -0.14071814   -0.1015254  -0.10892638    1.2659962   0.79106341 
 6030000    39.424779    29.991445    29.991445  -0.13569125  -0.12705402  -0.14031132   -0.1397084    1.2568897   0.80313477 
 6040000    39.424779    29.991445    29.991445  -0.19533456  -0.17080102  -0.17465408  -0.24054859    1.2567065    0.7984447 
 6050000    39.424779    29.991445    29.991445 -0.090535627  -0.13529944 -0.063881028 -0.072426411    1.2633897   0.79937397 
 6060000    39.424779    29.991445    29.991445 -0.085166815 -0.071977536 -0.074749037  -0.10877387    1.2520725   0.80678701 
 6070000    39.424779    29.991445    29.991445     -0.12825 -0.089553647  -0.14257151  -0.15262485    1.2497187   0.79500772 
 6080000    39.424779    29.991445    29.991445 -0.092174896  -0.13076727 -0.080904669 -0.064852746    1.2479476   0.80071929 
 6090000    39.424779    29.991445    29.991445  -0.10856064 -0.056683023  -0.13967791  -0.12932098    1.2501206       0.8031 
 6100000    39.424779    29.991445    29.991445  -0.12851892 -0.095075893  -0.16041075  -0.13007012    1.2595363    0.8000385 
 6100100    39.424779    29.991445    29.991445  -0.10549803 -0.083740862 -0.082266644   -0.1504866    1.2643376   0.79158337 
Loop time of 1596.18 on 216 procs for 100000 steps with 28900 atoms

Performance: 27064.556 tau/day, 62.649 timesteps/s
99.8% CPU use with 216 MPI tasks x 1 OpenMP threads

MPI task timing breakdown:
Section |  min time  |  avg time  |  max time  |%varavg| %total
---------------------------------------------------------------
Pair    | 0.7321     | 24.796     | 59.564     | 180.7 |  1.55
Bond    | 0.058925   | 0.27973    | 0.64331    |  15.5 |  0.02
Kspace  | 1438       | 1474.1     | 1496       |  25.9 | 92.35
Neigh   | 13.387     | 14.3       | 15.185     |   9.1 |  0.90
Comm    | 23.347     | 32.826     | 52.977     |  87.6 |  2.06
Output  | 0.044981   | 0.045028   | 0.046158   |   0.0 |  0.00
Modify  | 35.726     | 40.401     | 48.767     |  30.8 |  2.53
Other   |            | 9.483      |            |       |  0.59

Nlocal:    133.796 ave 217 max 2 min
Histogram: 3 2 2 3 7 86 79 16 11 7
Nghost:    981.477 ave 1348 max 395 min
Histogram: 2 3 3 5 16 52 84 34 14 3
Neighs:    5137.52 ave 12437 max 37 min
Histogram: 5 4 9 123 34 22 8 6 3 2

Total # of neighbors = 1109705
Ave neighs/atom = 38.3981
Ave special neighs/atom = 0.602076
Neighbor list builds = 13432
Dangerous builds = 0
Total wall time: 30:05:31
